<?xml version="1.0" encoding="UTF-8"?>

<!-- generated on 2022-08-20 23:44:33 by Eclipse SUMO GUI Version 1.11.0
<configuration xmlns:xsi="http://www.w3.org/2001/XMLSchema-instance" xsi:noNamespaceSchemaLocation="http://sumo.dlr.de/xsd/sumoConfiguration.xsd">

    <input>
        <net-file value="bus_operation.net.xml"/>
        <route-files value="bus_operation_VC_0.5_flow.rou.xml"/>
        <additional-files value="bus_operation.add.xml"/>
    </input>

    <output>
        <emission-output value="result/bus_operation_emissionInfo.xml"/>
        <battery-output value="result/bus_operation_batteryOut.xml"/>
        <battery-output.precision value="4"/>
        <summary-output value="result/bus_operation_summary.xml"/>
        <tripinfo-output value="result/bus_operation_tripInfo.xml"/>
    </output>

    <time>
        <begin value="0"/>
        <end value="7200"/>
    </time>

    <battery>
        <device.battery.probability value="1"/>
    </battery>

    <traci_server>
        <remote-port value="50070"/>
    </traci_server>

    <random_number>
        <random value="true"/>
        <seed value="8"/>
    </random_number>

</configuration>
-->

<tripinfos xmlns:xsi="http://www.w3.org/2001/XMLSchema-instance" xsi:noNamespaceSchemaLocation="http://sumo.dlr.de/xsd/tripinfo_file.xsd">
    <tripinfo id="Phase1THR_flow.0" depart="0.00" departLane="N1E2_0" departPos="4.10" departSpeed="0.00" departDelay="0.00" arrival="35.00" arrivalLane="E4C4_0" arrivalPos="160.00" arrivalSpeed="12.89" duration="35.00" routeLength="398.04" waitingTime="0.00" waitingCount="0" stopTime="0.00" timeLoss="4.25" rerouteNo="1" devices="tripinfo_Phase1THR_flow.0 routing_Phase1THR_flow.0 emissions_Phase1THR_flow.0 battery_Phase1THR_flow.0" vType="Auto" speedFactor="0.96" vaporized="">
        <emissions CO_abs="1461.733788" CO2_abs="103501.718437" HC_abs="9.061036" PMx_abs="1.777765" NOx_abs="41.790130" fuel_abs="44.490944" electricity_abs="0"/>
    </tripinfo>
    <tripinfo id="Phase1Right_flow.0" depart="2.00" departLane="N1E2_0" departPos="4.10" departSpeed="0.00" departDelay="2.00" arrival="35.00" arrivalLane="E1C1_0" arrivalPos="160.00" arrivalSpeed="14.47" duration="33.00" routeLength="379.87" waitingTime="0.00" waitingCount="0" stopTime="0.00" timeLoss="6.43" rerouteNo="1" devices="tripinfo_Phase1Right_flow.0 routing_Phase1Right_flow.0 emissions_Phase1Right_flow.0 battery_Phase1Right_flow.0" vType="Auto" speedFactor="1.05" vaporized="">
        <emissions CO_abs="2034.351035" CO2_abs="117575.791167" HC_abs="12.075373" PMx_abs="2.368343" NOx_abs="50.100975" fuel_abs="50.540537" electricity_abs="0"/>
    </tripinfo>
    <tripinfo id="Phase5THR_flow.0" depart="2.00" departLane="C4E4_0" departPos="4.10" departSpeed="0.00" departDelay="2.00" arrival="35.00" arrivalLane="E2N1_0" arrivalPos="160.00" arrivalSpeed="13.42" duration="33.00" routeLength="398.04" waitingTime="0.00" waitingCount="0" stopTime="0.00" timeLoss="4.31" rerouteNo="1" devices="tripinfo_Phase5THR_flow.0 routing_Phase5THR_flow.0 emissions_Phase5THR_flow.0 battery_Phase5THR_flow.0" vType="Auto" speedFactor="1.00" vaporized="">
        <emissions CO_abs="1701.883813" CO2_abs="106371.861864" HC_abs="10.282693" PMx_abs="2.049672" NOx_abs="44.536348" fuel_abs="45.724515" electricity_abs="0"/>
    </tripinfo>
    <tripinfo id="Phase5Right_flow.0" depart="5.00" departLane="C4E4_0" departPos="4.10" departSpeed="0.00" departDelay="5.00" arrival="38.00" arrivalLane="E3J2_0" arrivalPos="160.00" arrivalSpeed="12.65" duration="33.00" routeLength="379.87" waitingTime="0.00" waitingCount="0" stopTime="0.00" timeLoss="4.86" rerouteNo="1" devices="tripinfo_Phase5Right_flow.0 routing_Phase5Right_flow.0 emissions_Phase5Right_flow.0 battery_Phase5Right_flow.0" vType="Auto" speedFactor="1.00" vaporized="">
        <emissions CO_abs="1743.293036" CO2_abs="112691.883942" HC_abs="10.605407" PMx_abs="2.079767" NOx_abs="46.622267" fuel_abs="48.441296" electricity_abs="0"/>
    </tripinfo>
    <tripinfo id="Phase5THR_flow.1" depart="14.00" departLane="C4E4_0" departPos="4.10" departSpeed="0.00" departDelay="0.42" arrival="43.00" arrivalLane="E2N1_0" arrivalPos="160.00" arrivalSpeed="15.07" duration="29.00" routeLength="398.04" waitingTime="0.00" waitingCount="0" stopTime="0.00" timeLoss="4.22" rerouteNo="1" devices="tripinfo_Phase5THR_flow.1 routing_Phase5THR_flow.1 emissions_Phase5THR_flow.1 battery_Phase5THR_flow.1" vType="Auto" speedFactor="1.17" vaporized="">
        <emissions CO_abs="1495.450886" CO2_abs="110358.939968" HC_abs="9.406671" PMx_abs="2.020152" NOx_abs="44.862848" fuel_abs="47.438376" electricity_abs="0"/>
    </tripinfo>
    <tripinfo id="Phase1THR_flow.1" depart="14.00" departLane="N1E2_0" departPos="4.10" departSpeed="0.00" departDelay="0.77" arrival="47.00" arrivalLane="E4C4_0" arrivalPos="160.00" arrivalSpeed="14.01" duration="33.00" routeLength="398.04" waitingTime="0.00" waitingCount="0" stopTime="0.00" timeLoss="4.25" rerouteNo="1" devices="tripinfo_Phase1THR_flow.1 routing_Phase1THR_flow.1 emissions_Phase1THR_flow.1 battery_Phase1THR_flow.1" vType="Auto" speedFactor="1.03" vaporized="">
        <emissions CO_abs="1372.032827" CO2_abs="99642.872838" HC_abs="8.585265" PMx_abs="1.716975" NOx_abs="40.093063" fuel_abs="42.832175" electricity_abs="0"/>
    </tripinfo>
    <tripinfo id="Phase6_flow.0" depart="5.00" departLane="N1E2_0" departPos="4.10" departSpeed="0.00" departDelay="5.00" arrival="58.00" arrivalLane="E3J2_0" arrivalPos="160.00" arrivalSpeed="13.00" duration="53.00" routeLength="400.69" waitingTime="14.00" waitingCount="1" stopTime="0.00" timeLoss="21.74" rerouteNo="1" devices="tripinfo_Phase6_flow.0 routing_Phase6_flow.0 emissions_Phase6_flow.0 battery_Phase6_flow.0" vType="Auto" speedFactor="0.95" vaporized="">
        <emissions CO_abs="3696.871987" CO2_abs="153182.323297" HC_abs="20.450665" PMx_abs="3.005884" NOx_abs="64.704193" fuel_abs="65.847204" electricity_abs="0"/>
    </tripinfo>
    <tripinfo id="Phase2_flow.0" depart="0.00" departLane="C4E4_0" departPos="4.10" departSpeed="0.00" departDelay="0.00" arrival="60.00" arrivalLane="E1C1_0" arrivalPos="160.00" arrivalSpeed="11.91" duration="60.00" routeLength="400.69" waitingTime="17.00" waitingCount="1" stopTime="0.00" timeLoss="26.06" rerouteNo="1" devices="tripinfo_Phase2_flow.0 routing_Phase2_flow.0 emissions_Phase2_flow.0 battery_Phase2_flow.0" vType="Auto" speedFactor="0.87" vaporized="">
        <emissions CO_abs="4244.345162" CO2_abs="155727.253901" HC_abs="22.974930" PMx_abs="2.996431" NOx_abs="65.555322" fuel_abs="66.941662" electricity_abs="0"/>
    </tripinfo>
    <tripinfo id="Phase3THR_flow.0" depart="0.00" departLane="C1E1_0" departPos="4.10" departSpeed="0.00" departDelay="0.00" arrival="72.00" arrivalLane="E3J2_1" arrivalPos="160.00" arrivalSpeed="14.96" duration="72.00" routeLength="398.04" waitingTime="36.00" waitingCount="1" stopTime="0.00" timeLoss="45.90" rerouteNo="1" devices="tripinfo_Phase3THR_flow.0 routing_Phase3THR_flow.0 emissions_Phase3THR_flow.0 battery_Phase3THR_flow.0" vType="Auto" speedFactor="1.12" vaporized="">
        <emissions CO_abs="7694.398135" CO2_abs="224270.157345" HC_abs="40.325327" PMx_abs="4.809722" NOx_abs="97.213441" fuel_abs="96.406477" electricity_abs="0"/>
    </tripinfo>
    <tripinfo id="Phase3Right_flow.0" depart="2.00" departLane="C1E1_0" departPos="4.10" departSpeed="0.00" departDelay="2.00" arrival="72.00" arrivalLane="E4C4_0" arrivalPos="160.00" arrivalSpeed="12.54" duration="70.00" routeLength="379.87" waitingTime="30.00" waitingCount="2" stopTime="0.00" timeLoss="41.98" rerouteNo="1" devices="tripinfo_Phase3Right_flow.0 routing_Phase3Right_flow.0 emissions_Phase3Right_flow.0 battery_Phase3Right_flow.0" vType="Auto" speedFactor="1.00" vaporized="">
        <emissions CO_abs="6594.846742" CO2_abs="200258.317494" HC_abs="34.727789" PMx_abs="4.169361" NOx_abs="86.147047" fuel_abs="86.084504" electricity_abs="0"/>
    </tripinfo>
    <tripinfo id="Phase7THR_flow.0" depart="2.00" departLane="J2E3_0" departPos="4.10" departSpeed="0.00" departDelay="2.00" arrival="73.00" arrivalLane="E1C1_0" arrivalPos="160.00" arrivalSpeed="13.80" duration="71.00" routeLength="398.04" waitingTime="34.00" waitingCount="1" stopTime="0.00" timeLoss="43.29" rerouteNo="1" devices="tripinfo_Phase7THR_flow.0 routing_Phase7THR_flow.0 emissions_Phase7THR_flow.0 battery_Phase7THR_flow.0" vType="Auto" speedFactor="1.06" vaporized="">
        <emissions CO_abs="7070.658129" CO2_abs="214123.755533" HC_abs="37.195956" PMx_abs="4.591732" NOx_abs="92.910782" fuel_abs="92.044612" electricity_abs="0"/>
    </tripinfo>
    <tripinfo id="Phase7Right_flow.0" depart="5.00" departLane="J2E3_0" departPos="4.10" departSpeed="0.00" departDelay="5.00" arrival="74.00" arrivalLane="E2N1_0" arrivalPos="160.00" arrivalSpeed="14.47" duration="69.00" routeLength="379.87" waitingTime="33.00" waitingCount="1" stopTime="0.00" timeLoss="41.88" rerouteNo="1" devices="tripinfo_Phase7Right_flow.0 routing_Phase7Right_flow.0 emissions_Phase7Right_flow.0 battery_Phase7Right_flow.0" vType="Auto" speedFactor="1.05" vaporized="">
        <emissions CO_abs="7058.087100" CO2_abs="213214.515903" HC_abs="37.154403" PMx_abs="4.570760" NOx_abs="92.540468" fuel_abs="91.653781" electricity_abs="0"/>
    </tripinfo>
    <tripinfo id="Phase7THR_flow.1" depart="13.00" departLane="J2E3_0" departPos="4.10" departSpeed="0.00" departDelay="6.73" arrival="74.00" arrivalLane="E1C1_1" arrivalPos="160.00" arrivalSpeed="11.57" duration="61.00" routeLength="398.04" waitingTime="22.00" waitingCount="1" stopTime="0.00" timeLoss="29.99" rerouteNo="1" devices="tripinfo_Phase7THR_flow.1 routing_Phase7THR_flow.1 emissions_Phase7THR_flow.1 battery_Phase7THR_flow.1" vType="Auto" speedFactor="0.94" vaporized="">
        <emissions CO_abs="4990.056391" CO2_abs="169411.580383" HC_abs="26.707700" PMx_abs="3.393002" NOx_abs="72.026282" fuel_abs="72.824203" electricity_abs="0"/>
    </tripinfo>
    <tripinfo id="Phase3THR_flow.1" depart="12.00" departLane="C1E1_0" departPos="4.10" departSpeed="0.00" departDelay="3.16" arrival="75.00" arrivalLane="E3J2_1" arrivalPos="160.00" arrivalSpeed="13.37" duration="63.00" routeLength="398.04" waitingTime="27.00" waitingCount="1" stopTime="0.00" timeLoss="33.90" rerouteNo="1" devices="tripinfo_Phase3THR_flow.1 routing_Phase3THR_flow.1 emissions_Phase3THR_flow.1 battery_Phase3THR_flow.1" vType="Auto" speedFactor="1.02" vaporized="">
        <emissions CO_abs="5670.456363" CO2_abs="188941.596282" HC_abs="30.238646" PMx_abs="3.817412" NOx_abs="80.300338" fuel_abs="81.219542" electricity_abs="0"/>
    </tripinfo>
    <tripinfo id="Phase7THR_flow.2" depart="15.00" departLane="J2E3_0" departPos="4.10" departSpeed="0.00" departDelay="2.46" arrival="76.00" arrivalLane="E1C1_1" arrivalPos="160.00" arrivalSpeed="12.84" duration="61.00" routeLength="398.04" waitingTime="21.00" waitingCount="1" stopTime="0.00" timeLoss="31.70" rerouteNo="1" devices="tripinfo_Phase7THR_flow.2 routing_Phase7THR_flow.2 emissions_Phase7THR_flow.2 battery_Phase7THR_flow.2" vType="Auto" speedFactor="1.01" vaporized="">
        <emissions CO_abs="5310.469033" CO2_abs="187875.518890" HC_abs="28.596043" PMx_abs="3.895330" NOx_abs="80.765205" fuel_abs="80.760810" electricity_abs="0"/>
    </tripinfo>
    <tripinfo id="Phase3THR_flow.2" depart="18.00" departLane="C1E1_0" departPos="4.10" departSpeed="0.00" departDelay="0.31" arrival="76.00" arrivalLane="E3J2_1" arrivalPos="160.00" arrivalSpeed="13.29" duration="58.00" routeLength="398.04" waitingTime="21.00" waitingCount="1" stopTime="0.00" timeLoss="29.72" rerouteNo="1" devices="tripinfo_Phase3THR_flow.2 routing_Phase3THR_flow.2 emissions_Phase3THR_flow.2 battery_Phase3THR_flow.2" vType="Auto" speedFactor="1.01" vaporized="">
        <emissions CO_abs="4974.892858" CO2_abs="171354.286090" HC_abs="26.679405" PMx_abs="3.466669" NOx_abs="72.989964" fuel_abs="73.659196" electricity_abs="0"/>
    </tripinfo>
    <tripinfo id="Phase7THR_flow.3" depart="19.00" departLane="J2E3_0" departPos="4.10" departSpeed="0.00" departDelay="0.18" arrival="77.00" arrivalLane="E1C1_1" arrivalPos="160.00" arrivalSpeed="14.91" duration="58.00" routeLength="398.04" waitingTime="19.00" waitingCount="1" stopTime="0.00" timeLoss="30.93" rerouteNo="1" devices="tripinfo_Phase7THR_flow.3 routing_Phase7THR_flow.3 emissions_Phase7THR_flow.3 battery_Phase7THR_flow.3" vType="Auto" speedFactor="1.07" vaporized="">
        <emissions CO_abs="5079.768534" CO2_abs="192043.729568" HC_abs="27.671030" PMx_abs="3.986068" NOx_abs="82.542241" fuel_abs="82.552274" electricity_abs="0"/>
    </tripinfo>
    <tripinfo id="Bus_East.0" depart="8.00" departLane="C1E1_0" departPos="12.10" departSpeed="0.00" departDelay="8.00" arrival="78.00" arrivalLane="E3J2_0" arrivalPos="160.00" arrivalSpeed="13.89" duration="70.00" routeLength="390.04" waitingTime="21.00" waitingCount="1" stopTime="0.00" timeLoss="41.36" rerouteNo="0" devices="tripinfo_Bus_East.0 emissions_Bus_East.0 battery_Bus_East.0" vType="ElectricBus" speedFactor="1.00" vaporized="">
        <emissions CO_abs="0" CO2_abs="0" HC_abs="0" PMx_abs="0" NOx_abs="0" fuel_abs="0" electricity_abs="856.490055"/>
    </tripinfo>
    <tripinfo id="Phase7THR_flow.4" depart="26.00" departLane="J2E3_0" departPos="4.10" departSpeed="0.00" departDelay="0.91" arrival="79.00" arrivalLane="E1C1_1" arrivalPos="160.00" arrivalSpeed="12.42" duration="53.00" routeLength="398.04" waitingTime="13.00" waitingCount="1" stopTime="0.00" timeLoss="21.86" rerouteNo="1" devices="tripinfo_Phase7THR_flow.4 routing_Phase7THR_flow.4 emissions_Phase7THR_flow.4 battery_Phase7THR_flow.4" vType="Auto" speedFactor="0.92" vaporized="">
        <emissions CO_abs="3579.555069" CO2_abs="150287.314875" HC_abs="19.833328" PMx_abs="2.872072" NOx_abs="63.074581" fuel_abs="64.602818" electricity_abs="0"/>
    </tripinfo>
    <tripinfo id="Bus_West.0" depart="9.00" departLane="J2E3_0" departPos="12.10" departSpeed="0.00" departDelay="9.00" arrival="80.00" arrivalLane="E1C1_0" arrivalPos="160.00" arrivalSpeed="13.89" duration="71.00" routeLength="390.04" waitingTime="22.00" waitingCount="1" stopTime="0.00" timeLoss="42.10" rerouteNo="0" devices="tripinfo_Bus_West.0 emissions_Bus_West.0 battery_Bus_West.0" vType="ElectricBus" speedFactor="1.00" vaporized="">
        <emissions CO_abs="0" CO2_abs="0" HC_abs="0" PMx_abs="0" NOx_abs="0" fuel_abs="0" electricity_abs="859.371308"/>
    </tripinfo>
    <tripinfo id="Phase3THR_flow.3" depart="27.00" departLane="C1E1_0" departPos="4.10" departSpeed="0.00" departDelay="0.47" arrival="80.00" arrivalLane="E3J2_1" arrivalPos="160.00" arrivalSpeed="11.86" duration="53.00" routeLength="398.04" waitingTime="10.00" waitingCount="1" stopTime="0.00" timeLoss="21.11" rerouteNo="1" devices="tripinfo_Phase3THR_flow.3 routing_Phase3THR_flow.3 emissions_Phase3THR_flow.3 battery_Phase3THR_flow.3" vType="Auto" speedFactor="0.91" vaporized="">
        <emissions CO_abs="3134.188882" CO2_abs="134749.716326" HC_abs="17.422402" PMx_abs="2.464659" NOx_abs="55.746456" fuel_abs="57.923908" electricity_abs="0"/>
    </tripinfo>
    <tripinfo id="Phase3THR_flow.4" depart="36.00" departLane="C1E1_0" departPos="4.10" departSpeed="0.00" departDelay="0.62" arrival="80.00" arrivalLane="E3J2_0" arrivalPos="160.00" arrivalSpeed="15.15" duration="44.00" routeLength="398.04" waitingTime="4.00" waitingCount="1" stopTime="0.00" timeLoss="17.38" rerouteNo="1" devices="tripinfo_Phase3THR_flow.4 routing_Phase3THR_flow.4 emissions_Phase3THR_flow.4 battery_Phase3THR_flow.4" vType="Auto" speedFactor="1.09" vaporized="">
        <emissions CO_abs="2700.912290" CO2_abs="149625.569744" HC_abs="15.828283" PMx_abs="2.787344" NOx_abs="62.079145" fuel_abs="64.317756" electricity_abs="0"/>
    </tripinfo>
    <tripinfo id="Phase7THR_flow.5" depart="32.00" departLane="J2E3_0" departPos="4.10" departSpeed="0.00" departDelay="0.64" arrival="81.00" arrivalLane="E1C1_1" arrivalPos="160.00" arrivalSpeed="12.97" duration="49.00" routeLength="398.04" waitingTime="9.00" waitingCount="1" stopTime="0.00" timeLoss="20.00" rerouteNo="1" devices="tripinfo_Phase7THR_flow.5 routing_Phase7THR_flow.5 emissions_Phase7THR_flow.5 battery_Phase7THR_flow.5" vType="Auto" speedFactor="1.00" vaporized="">
        <emissions CO_abs="3513.746445" CO2_abs="154738.899926" HC_abs="19.668644" PMx_abs="3.087711" NOx_abs="65.796274" fuel_abs="66.516038" electricity_abs="0"/>
    </tripinfo>
    <tripinfo id="Phase3THR_flow.5" depart="45.00" departLane="C1E1_0" departPos="4.10" departSpeed="0.00" departDelay="0.78" arrival="82.00" arrivalLane="E3J2_1" arrivalPos="160.00" arrivalSpeed="12.35" duration="37.00" routeLength="398.04" waitingTime="0.00" waitingCount="0" stopTime="0.00" timeLoss="5.41" rerouteNo="1" devices="tripinfo_Phase3THR_flow.5 routing_Phase3THR_flow.5 emissions_Phase3THR_flow.5 battery_Phase3THR_flow.5" vType="Auto" speedFactor="0.93" vaporized="">
        <emissions CO_abs="1571.726716" CO2_abs="107277.462006" HC_abs="9.672945" PMx_abs="1.845864" NOx_abs="43.511058" fuel_abs="46.114004" electricity_abs="0"/>
    </tripinfo>
    <tripinfo id="Phase7THR_flow.6" depart="38.00" departLane="J2E3_0" departPos="4.10" departSpeed="0.00" departDelay="0.37" arrival="83.00" arrivalLane="E1C1_0" arrivalPos="160.00" arrivalSpeed="12.59" duration="45.00" routeLength="398.04" waitingTime="3.00" waitingCount="1" stopTime="0.00" timeLoss="14.79" rerouteNo="1" devices="tripinfo_Phase7THR_flow.6 routing_Phase7THR_flow.6 emissions_Phase7THR_flow.6 battery_Phase7THR_flow.6" vType="Auto" speedFactor="0.98" vaporized="">
        <emissions CO_abs="2359.456876" CO2_abs="127729.275244" HC_abs="13.737564" PMx_abs="2.273706" NOx_abs="52.409810" fuel_abs="54.905656" electricity_abs="0"/>
    </tripinfo>
    <tripinfo id="Phase7THR_flow.7" depart="44.00" departLane="J2E3_0" departPos="4.10" departSpeed="0.00" departDelay="0.10" arrival="83.00" arrivalLane="E1C1_1" arrivalPos="160.00" arrivalSpeed="14.86" duration="39.00" routeLength="398.04" waitingTime="0.00" waitingCount="0" stopTime="0.00" timeLoss="11.62" rerouteNo="1" devices="tripinfo_Phase7THR_flow.7 routing_Phase7THR_flow.7 emissions_Phase7THR_flow.7 battery_Phase7THR_flow.7" vType="Auto" speedFactor="1.08" vaporized="">
        <emissions CO_abs="2888.194150" CO2_abs="165838.764371" HC_abs="17.084146" PMx_abs="3.307865" NOx_abs="70.437153" fuel_abs="71.286678" electricity_abs="0"/>
    </tripinfo>
    <tripinfo id="Phase7THR_flow.8" depart="51.00" departLane="J2E3_0" departPos="4.10" departSpeed="0.00" departDelay="0.82" arrival="84.00" arrivalLane="E1C1_0" arrivalPos="160.00" arrivalSpeed="13.85" duration="33.00" routeLength="398.04" waitingTime="0.00" waitingCount="0" stopTime="0.00" timeLoss="4.51" rerouteNo="1" devices="tripinfo_Phase7THR_flow.8 routing_Phase7THR_flow.8 emissions_Phase7THR_flow.8 battery_Phase7THR_flow.8" vType="Auto" speedFactor="1.01" vaporized="">
        <emissions CO_abs="1431.584825" CO2_abs="105513.268092" HC_abs="8.973992" PMx_abs="1.780265" NOx_abs="42.227232" fuel_abs="45.355640" electricity_abs="0"/>
    </tripinfo>
    <tripinfo id="Phase7THR_flow.9" depart="57.00" departLane="J2E3_0" departPos="4.10" departSpeed="0.00" departDelay="0.55" arrival="91.00" arrivalLane="E1C1_0" arrivalPos="160.00" arrivalSpeed="13.54" duration="34.00" routeLength="398.04" waitingTime="0.00" waitingCount="0" stopTime="0.00" timeLoss="4.73" rerouteNo="1" devices="tripinfo_Phase7THR_flow.9 routing_Phase7THR_flow.9 emissions_Phase7THR_flow.9 battery_Phase7THR_flow.9" vType="Auto" speedFactor="0.98" vaporized="">
        <emissions CO_abs="1466.820347" CO2_abs="97874.824773" HC_abs="8.973767" PMx_abs="1.704193" NOx_abs="39.624104" fuel_abs="42.072229" electricity_abs="0"/>
    </tripinfo>
    <tripinfo id="Phase3THR_flow.6" depart="54.00" departLane="C1E1_0" departPos="4.10" departSpeed="0.00" departDelay="0.93" arrival="92.00" arrivalLane="E3J2_0" arrivalPos="160.00" arrivalSpeed="10.88" duration="38.00" routeLength="398.04" waitingTime="0.00" waitingCount="0" stopTime="0.00" timeLoss="4.43" rerouteNo="1" devices="tripinfo_Phase3THR_flow.6 routing_Phase3THR_flow.6 emissions_Phase3THR_flow.6 battery_Phase3THR_flow.6" vType="Auto" speedFactor="0.86" vaporized="">
        <emissions CO_abs="1272.768923" CO2_abs="81187.851357" HC_abs="7.683768" PMx_abs="1.333277" NOx_abs="32.592794" fuel_abs="34.899354" electricity_abs="0"/>
    </tripinfo>
    <tripinfo id="Phase3Right_flow.1" depart="57.00" departLane="C1E1_0" departPos="4.10" departSpeed="0.00" departDelay="1.62" arrival="94.00" arrivalLane="E4C4_0" arrivalPos="160.00" arrivalSpeed="11.67" duration="37.00" routeLength="379.87" waitingTime="0.00" waitingCount="0" stopTime="0.00" timeLoss="5.92" rerouteNo="1" devices="tripinfo_Phase3Right_flow.1 routing_Phase3Right_flow.1 emissions_Phase3Right_flow.1 battery_Phase3Right_flow.1" vType="Auto" speedFactor="0.91" vaporized="">
        <emissions CO_abs="1705.925111" CO2_abs="108732.677872" HC_abs="10.320605" PMx_abs="1.910850" NOx_abs="44.478357" fuel_abs="46.739562" electricity_abs="0"/>
    </tripinfo>
    <tripinfo id="Phase3THR_flow.7" depart="62.00" departLane="C1E1_0" departPos="4.10" departSpeed="0.00" departDelay="0.09" arrival="94.00" arrivalLane="E3J2_0" arrivalPos="160.00" arrivalSpeed="14.06" duration="32.00" routeLength="398.04" waitingTime="0.00" waitingCount="0" stopTime="0.00" timeLoss="4.93" rerouteNo="1" devices="tripinfo_Phase3THR_flow.7 routing_Phase3THR_flow.7 emissions_Phase3THR_flow.7 battery_Phase3THR_flow.7" vType="Auto" speedFactor="1.08" vaporized="">
        <emissions CO_abs="1531.114968" CO2_abs="112329.950128" HC_abs="9.632594" PMx_abs="2.022815" NOx_abs="45.797852" fuel_abs="48.285653" electricity_abs="0"/>
    </tripinfo>
    <tripinfo id="Phase7THR_flow.10" depart="63.00" departLane="J2E3_0" departPos="4.10" departSpeed="0.00" departDelay="0.28" arrival="102.00" arrivalLane="E1C1_0" arrivalPos="160.00" arrivalSpeed="11.55" duration="39.00" routeLength="398.04" waitingTime="0.00" waitingCount="0" stopTime="0.00" timeLoss="4.13" rerouteNo="1" devices="tripinfo_Phase7THR_flow.10 routing_Phase7THR_flow.10 emissions_Phase7THR_flow.10 battery_Phase7THR_flow.10" vType="Auto" speedFactor="0.84" vaporized="">
        <emissions CO_abs="1388.518746" CO2_abs="90654.436788" HC_abs="8.431985" PMx_abs="1.487427" NOx_abs="36.369035" fuel_abs="38.968630" electricity_abs="0"/>
    </tripinfo>
    <tripinfo id="Phase7THR_flow.11" depart="69.00" departLane="J2E3_0" departPos="4.10" departSpeed="0.00" departDelay="0.01" arrival="107.00" arrivalLane="E1C1_0" arrivalPos="160.00" arrivalSpeed="10.53" duration="38.00" routeLength="398.04" waitingTime="0.00" waitingCount="0" stopTime="0.00" timeLoss="4.27" rerouteNo="1" devices="tripinfo_Phase7THR_flow.11 routing_Phase7THR_flow.11 emissions_Phase7THR_flow.11 battery_Phase7THR_flow.11" vType="Auto" speedFactor="0.86" vaporized="">
        <emissions CO_abs="1411.511917" CO2_abs="94320.805691" HC_abs="8.620868" PMx_abs="1.533618" NOx_abs="37.713063" fuel_abs="40.544649" electricity_abs="0"/>
    </tripinfo>
    <tripinfo id="Phase3THR_flow.8" depart="71.00" departLane="C1E1_0" departPos="4.10" departSpeed="0.00" departDelay="0.24" arrival="108.00" arrivalLane="E3J2_0" arrivalPos="160.00" arrivalSpeed="11.87" duration="37.00" routeLength="398.04" waitingTime="0.00" waitingCount="0" stopTime="0.00" timeLoss="4.03" rerouteNo="1" devices="tripinfo_Phase3THR_flow.8 routing_Phase3THR_flow.8 emissions_Phase3THR_flow.8 battery_Phase3THR_flow.8" vType="Auto" speedFactor="0.88" vaporized="">
        <emissions CO_abs="1410.850968" CO2_abs="100997.679717" HC_abs="8.769273" PMx_abs="1.599390" NOx_abs="40.019195" fuel_abs="43.414751" electricity_abs="0"/>
    </tripinfo>
    <tripinfo id="Phase7THR_flow.12" depart="76.00" departLane="J2E3_0" departPos="4.10" departSpeed="0.00" departDelay="0.74" arrival="112.00" arrivalLane="E1C1_0" arrivalPos="160.00" arrivalSpeed="12.22" duration="36.00" routeLength="398.04" waitingTime="0.00" waitingCount="0" stopTime="0.00" timeLoss="4.33" rerouteNo="1" devices="tripinfo_Phase7THR_flow.12 routing_Phase7THR_flow.12 emissions_Phase7THR_flow.12 battery_Phase7THR_flow.12" vType="Auto" speedFactor="0.92" vaporized="">
        <emissions CO_abs="1295.759073" CO2_abs="101203.765654" HC_abs="8.243734" PMx_abs="1.539029" NOx_abs="39.530041" fuel_abs="43.503352" electricity_abs="0"/>
    </tripinfo>
    <tripinfo id="Phase3THR_flow.9" depart="80.00" departLane="C1E1_0" departPos="4.10" departSpeed="0.00" departDelay="0.40" arrival="113.00" arrivalLane="E3J2_0" arrivalPos="160.00" arrivalSpeed="13.50" duration="33.00" routeLength="398.04" waitingTime="0.00" waitingCount="0" stopTime="0.00" timeLoss="4.12" rerouteNo="1" devices="tripinfo_Phase3THR_flow.9 routing_Phase3THR_flow.9 emissions_Phase3THR_flow.9 battery_Phase3THR_flow.9" vType="Auto" speedFactor="1.01" vaporized="">
        <emissions CO_abs="1212.446248" CO2_abs="93500.872505" HC_abs="7.660885" PMx_abs="1.508788" NOx_abs="36.860791" fuel_abs="40.192089" electricity_abs="0"/>
    </tripinfo>
    <tripinfo id="Phase7THR_flow.13" depart="82.00" departLane="J2E3_0" departPos="4.10" departSpeed="0.00" departDelay="0.46" arrival="113.00" arrivalLane="E1C1_0" arrivalPos="160.00" arrivalSpeed="14.20" duration="31.00" routeLength="398.04" waitingTime="0.00" waitingCount="0" stopTime="0.00" timeLoss="4.67" rerouteNo="1" devices="tripinfo_Phase7THR_flow.13 routing_Phase7THR_flow.13 emissions_Phase7THR_flow.13 battery_Phase7THR_flow.13" vType="Auto" speedFactor="1.09" vaporized="">
        <emissions CO_abs="1464.909268" CO2_abs="97692.268608" HC_abs="8.948509" PMx_abs="1.844649" NOx_abs="40.435983" fuel_abs="41.993534" electricity_abs="0"/>
    </tripinfo>
    <tripinfo id="Phase8_flow.0" depart="5.00" departLane="C1E1_0" departPos="4.10" departSpeed="0.00" departDelay="5.00" arrival="119.00" arrivalLane="E2N1_0" arrivalPos="160.00" arrivalSpeed="16.25" duration="114.00" routeLength="400.69" waitingTime="80.00" waitingCount="1" stopTime="0.00" timeLoss="89.65" rerouteNo="1" devices="tripinfo_Phase8_flow.0 routing_Phase8_flow.0 emissions_Phase8_flow.0 battery_Phase8_flow.0" vType="Auto" speedFactor="1.23" vaporized="">
        <emissions CO_abs="15032.649316" CO2_abs="353280.862237" HC_abs="76.798254" PMx_abs="8.128820" NOx_abs="156.703269" fuel_abs="151.865649" electricity_abs="0"/>
    </tripinfo>
    <tripinfo id="Phase4_flow.0" depart="0.00" departLane="J2E3_0" departPos="4.10" departSpeed="0.00" departDelay="0.00" arrival="122.00" arrivalLane="E4C4_0" arrivalPos="160.00" arrivalSpeed="12.77" duration="122.00" routeLength="400.69" waitingTime="83.00" waitingCount="1" stopTime="0.00" timeLoss="91.27" rerouteNo="1" devices="tripinfo_Phase4_flow.0 routing_Phase4_flow.0 emissions_Phase4_flow.0 battery_Phase4_flow.0" vType="Auto" speedFactor="0.97" vaporized="">
        <emissions CO_abs="14912.982483" CO2_abs="327633.907342" HC_abs="75.610826" PMx_abs="7.413003" NOx_abs="144.917180" fuel_abs="140.841720" electricity_abs="0"/>
    </tripinfo>
    <tripinfo id="Phase4_flow.1" depart="55.00" departLane="J2E3_0" departPos="4.10" departSpeed="0.00" departDelay="0.46" arrival="123.00" arrivalLane="E4C4_0" arrivalPos="160.00" arrivalSpeed="13.78" duration="68.00" routeLength="400.69" waitingTime="31.00" waitingCount="1" stopTime="0.00" timeLoss="42.53" rerouteNo="1" devices="tripinfo_Phase4_flow.1 routing_Phase4_flow.1 emissions_Phase4_flow.1 battery_Phase4_flow.1" vType="Auto" speedFactor="1.16" vaporized="">
        <emissions CO_abs="6886.561262" CO2_abs="219983.235965" HC_abs="36.553512" PMx_abs="4.698526" NOx_abs="95.238847" fuel_abs="94.563130" electricity_abs="0"/>
    </tripinfo>
    <tripinfo id="Phase5THR_flow.2" depart="28.00" departLane="C4E4_0" departPos="4.10" departSpeed="0.00" departDelay="0.83" arrival="137.00" arrivalLane="E2N1_0" arrivalPos="160.00" arrivalSpeed="14.24" duration="109.00" routeLength="398.04" waitingTime="75.00" waitingCount="1" stopTime="0.00" timeLoss="82.46" rerouteNo="1" devices="tripinfo_Phase5THR_flow.2 routing_Phase5THR_flow.2 emissions_Phase5THR_flow.2 battery_Phase5THR_flow.2" vType="Auto" speedFactor="1.10" vaporized="">
        <emissions CO_abs="13577.206147" CO2_abs="315659.387752" HC_abs="69.235428" PMx_abs="7.040793" NOx_abs="138.551165" fuel_abs="135.693687" electricity_abs="0"/>
    </tripinfo>
    <tripinfo id="Phase1THR_flow.3" depart="40.00" departLane="N1E2_0" departPos="4.10" departSpeed="0.00" departDelay="0.30" arrival="137.00" arrivalLane="E4C4_0" arrivalPos="160.00" arrivalSpeed="14.70" duration="97.00" routeLength="398.04" waitingTime="59.00" waitingCount="1" stopTime="0.00" timeLoss="71.46" rerouteNo="1" devices="tripinfo_Phase1THR_flow.3 routing_Phase1THR_flow.3 emissions_Phase1THR_flow.3 battery_Phase1THR_flow.3" vType="Auto" speedFactor="1.15" vaporized="">
        <emissions CO_abs="11277.518067" CO2_abs="279870.692602" HC_abs="57.918182" PMx_abs="6.274703" NOx_abs="123.185040" fuel_abs="120.308346" electricity_abs="0"/>
    </tripinfo>
    <tripinfo id="Phase1THR_flow.2" depart="27.00" departLane="N1E2_0" departPos="4.10" departSpeed="0.00" departDelay="0.53" arrival="139.00" arrivalLane="E4C4_0" arrivalPos="160.00" arrivalSpeed="13.42" duration="112.00" routeLength="398.04" waitingTime="74.00" waitingCount="1" stopTime="0.00" timeLoss="82.61" rerouteNo="1" devices="tripinfo_Phase1THR_flow.2 routing_Phase1THR_flow.2 emissions_Phase1THR_flow.2 battery_Phase1THR_flow.2" vType="Auto" speedFactor="0.99" vaporized="">
        <emissions CO_abs="13423.388093" CO2_abs="307111.492361" HC_abs="68.349177" PMx_abs="6.848525" NOx_abs="135.066608" fuel_abs="132.019333" electricity_abs="0"/>
    </tripinfo>