<?xml version="1.0" encoding="UTF-8"?>

<!-- generated on 2022-08-03 20:02:07 by Eclipse SUMO GUI Version 1.11.0
<configuration xmlns:xsi="http://www.w3.org/2001/XMLSchema-instance" xsi:noNamespaceSchemaLocation="http://sumo.dlr.de/xsd/sumoConfiguration.xsd">

    <input>
        <net-file value="bus_operation.net.xml"/>
        <route-files value="bus_operation_VC_0.5_flow.rou.xml"/>
        <additional-files value="bus_operation.add.xml"/>
    </input>

    <output>
        <emission-output value="result/bus_operation_emissionInfo.xml"/>
        <battery-output value="result/bus_operation_batteryOut.xml"/>
        <battery-output.precision value="4"/>
        <summary-output value="result/bus_operation_summary.xml"/>
        <tripinfo-output value="result/bus_operation_tripInfo.xml"/>
    </output>

    <time>
        <begin value="0"/>
        <end value="7200"/>
    </time>

    <battery>
        <device.battery.probability value="1"/>
    </battery>

    <traci_server>
        <remote-port value="51426"/>
    </traci_server>

    <random_number>
        <random value="true"/>
        <seed value="8"/>
    </random_number>

</configuration>
-->

<emission-export xmlns:xsi="http://www.w3.org/2001/XMLSchema-instance" xsi:noNamespaceSchemaLocation="http://sumo.dlr.de/xsd/emission_file.xsd">
    <timestep time="0.00">
        <vehicle id="Phase1THR_flow.0" eclass="HBEFA3/PC_G_EU4" CO2="2624.72" CO="164.78" HC="0.81" NOx="1.20" PMx="0.07" fuel="1.13" electricity="0.00" noise="55.94" route="!Phase1THR_flow.0!var#1" type="Auto" waiting="0.00" lane="N1E2_0" pos="4.10" speed="0.00" angle="180.00" x="192.00" y="195.90"/>
        <vehicle id="Phase2_flow.0" eclass="HBEFA3/PC_G_EU4" CO2="2624.72" CO="164.78" HC="0.81" NOx="1.20" PMx="0.07" fuel="1.13" electricity="0.00" noise="55.94" route="!Phase2_flow.0!var#1" type="Auto" waiting="0.00" lane="C4E4_0" pos="4.10" speed="0.00" angle="0.00" x="208.00" y="-195.90"/>
        <vehicle id="Phase3THR_flow.0" eclass="HBEFA3/PC_G_EU4" CO2="2624.72" CO="164.78" HC="0.81" NOx="1.20" PMx="0.07" fuel="1.13" electricity="0.00" noise="55.94" route="!Phase3THR_flow.0!var#1" type="Auto" waiting="0.00" lane="C1E1_0" pos="4.10" speed="0.00" angle="90.00" x="4.10" y="-8.00"/>
        <vehicle id="Phase4_flow.0" eclass="HBEFA3/PC_G_EU4" CO2="2624.72" CO="164.78" HC="0.81" NOx="1.20" PMx="0.07" fuel="1.13" electricity="0.00" noise="55.94" route="!Phase4_flow.0!var#1" type="Auto" waiting="0.00" lane="J2E3_0" pos="4.10" speed="0.00" angle="270.00" x="395.90" y="8.00"/>
    </timestep>
    <timestep time="1.00">
        <vehicle id="Phase1THR_flow.0" eclass="HBEFA3/PC_G_EU4" CO2="3366.93" CO="147.63" HC="0.75" NOx="1.50" PMx="0.08" fuel="1.45" electricity="0.00" noise="65.13" route="!Phase1THR_flow.0!var#1" type="Auto" waiting="0.00" lane="N1E2_0" pos="6.02" speed="1.92" angle="180.00" x="192.00" y="193.98"/>
        <vehicle id="Phase2_flow.0" eclass="HBEFA3/PC_G_EU4" CO2="3366.93" CO="147.63" HC="0.75" NOx="1.50" PMx="0.08" fuel="1.45" electricity="0.00" noise="65.13" route="!Phase2_flow.0!var#1" type="Auto" waiting="0.00" lane="C4E4_0" pos="6.02" speed="1.92" angle="0.00" x="208.00" y="-193.98"/>
        <vehicle id="Phase3THR_flow.0" eclass="HBEFA3/PC_G_EU4" CO2="3366.93" CO="147.63" HC="0.75" NOx="1.50" PMx="0.08" fuel="1.45" electricity="0.00" noise="65.13" route="!Phase3THR_flow.0!var#1" type="Auto" waiting="0.00" lane="C1E1_0" pos="6.02" speed="1.92" angle="90.00" x="6.02" y="-8.00"/>
        <vehicle id="Phase4_flow.0" eclass="HBEFA3/PC_G_EU4" CO2="3366.93" CO="147.63" HC="0.75" NOx="1.50" PMx="0.08" fuel="1.45" electricity="0.00" noise="65.13" route="!Phase4_flow.0!var#1" type="Auto" waiting="0.00" lane="J2E3_0" pos="6.02" speed="1.92" angle="270.00" x="393.98" y="8.00"/>
    </timestep>
    <timestep time="2.00">
        <vehicle id="Phase1THR_flow.0" eclass="HBEFA3/PC_G_EU4" CO2="4983.25" CO="144.18" HC="0.77" NOx="2.20" PMx="0.11" fuel="2.14" electricity="0.00" noise="68.41" route="!Phase1THR_flow.0!var#1" type="Auto" waiting="0.00" lane="N1E2_0" pos="10.38" speed="4.36" angle="180.00" x="192.00" y="189.62"/>
        <vehicle id="Phase2_flow.0" eclass="HBEFA3/PC_G_EU4" CO2="4983.25" CO="144.18" HC="0.77" NOx="2.20" PMx="0.11" fuel="2.14" electricity="0.00" noise="68.41" route="!Phase2_flow.0!var#1" type="Auto" waiting="0.00" lane="C4E4_0" pos="10.38" speed="4.36" angle="0.00" x="208.00" y="-189.62"/>
        <vehicle id="Phase3THR_flow.0" eclass="HBEFA3/PC_G_EU4" CO2="4983.25" CO="144.18" HC="0.77" NOx="2.20" PMx="0.11" fuel="2.14" electricity="0.00" noise="68.41" route="!Phase3THR_flow.0!var#1" type="Auto" waiting="0.00" lane="C1E1_0" pos="10.38" speed="4.36" angle="90.00" x="10.38" y="-8.00"/>
        <vehicle id="Phase4_flow.0" eclass="HBEFA3/PC_G_EU4" CO2="4983.25" CO="144.18" HC="0.77" NOx="2.20" PMx="0.11" fuel="2.14" electricity="0.00" noise="68.41" route="!Phase4_flow.0!var#1" type="Auto" waiting="0.00" lane="J2E3_0" pos="10.38" speed="4.36" angle="270.00" x="389.62" y="8.00"/>
    </timestep>
    <timestep time="3.00">
        <vehicle id="Phase1Right_flow.0" eclass="HBEFA3/PC_G_EU4" CO2="2624.72" CO="164.78" HC="0.81" NOx="1.20" PMx="0.07" fuel="1.13" electricity="0.00" noise="55.94" route="!Phase1Right_flow.0!var#1" type="Auto" waiting="0.00" lane="N1E2_0" pos="4.10" speed="0.00" angle="180.00" x="192.00" y="195.90"/>
        <vehicle id="Phase1THR_flow.0" eclass="HBEFA3/PC_G_EU4" CO2="5056.04" CO="121.52" HC="0.67" NOx="2.18" PMx="0.10" fuel="2.17" electricity="0.00" noise="66.52" route="!Phase1THR_flow.0!var#1" type="Auto" waiting="0.00" lane="N1E2_0" pos="16.57" speed="6.18" angle="180.00" x="192.00" y="183.43"/>
        <vehicle id="Phase2_flow.0" eclass="HBEFA3/PC_G_EU4" CO2="5056.04" CO="121.52" HC="0.67" NOx="2.18" PMx="0.10" fuel="2.17" electricity="0.00" noise="66.52" route="!Phase2_flow.0!var#1" type="Auto" waiting="0.00" lane="C4E4_0" pos="16.57" speed="6.18" angle="0.00" x="208.00" y="-183.43"/>
        <vehicle id="Phase3Right_flow.0" eclass="HBEFA3/PC_G_EU4" CO2="2624.72" CO="164.78" HC="0.81" NOx="1.20" PMx="0.07" fuel="1.13" electricity="0.00" noise="55.94" route="!Phase3Right_flow.0!var#1" type="Auto" waiting="0.00" lane="C1E1_0" pos="4.10" speed="0.00" angle="90.00" x="4.10" y="-8.00"/>
        <vehicle id="Phase3THR_flow.0" eclass="HBEFA3/PC_G_EU4" CO2="5056.04" CO="121.52" HC="0.67" NOx="2.18" PMx="0.10" fuel="2.17" electricity="0.00" noise="66.52" route="!Phase3THR_flow.0!var#1" type="Auto" waiting="0.00" lane="C1E1_0" pos="16.57" speed="6.18" angle="90.00" x="16.57" y="-8.00"/>
        <vehicle id="Phase4_flow.0" eclass="HBEFA3/PC_G_EU4" CO2="5056.04" CO="121.52" HC="0.67" NOx="2.18" PMx="0.10" fuel="2.17" electricity="0.00" noise="66.52" route="!Phase4_flow.0!var#1" type="Auto" waiting="0.00" lane="J2E3_0" pos="16.57" speed="6.18" angle="270.00" x="383.43" y="8.00"/>
        <vehicle id="Phase5THR_flow.0" eclass="HBEFA3/PC_G_EU4" CO2="2624.72" CO="164.78" HC="0.81" NOx="1.20" PMx="0.07" fuel="1.13" electricity="0.00" noise="55.94" route="!Phase5THR_flow.0!var#1" type="Auto" waiting="0.00" lane="C4E4_0" pos="4.10" speed="0.00" angle="0.00" x="208.00" y="-195.90"/>
        <vehicle id="Phase7THR_flow.0" eclass="HBEFA3/PC_G_EU4" CO2="2624.72" CO="164.78" HC="0.81" NOx="1.20" PMx="0.07" fuel="1.13" electricity="0.00" noise="55.94" route="!Phase7THR_flow.0!var#1" type="Auto" waiting="0.00" lane="J2E3_0" pos="4.10" speed="0.00" angle="270.00" x="395.90" y="8.00"/>
    </timestep>
    <timestep time="4.00">
        <vehicle id="Phase1Right_flow.0" eclass="HBEFA3/PC_G_EU4" CO2="3787.61" CO="149.70" HC="0.77" NOx="1.69" PMx="0.08" fuel="1.63" electricity="0.00" noise="67.12" route="!Phase1Right_flow.0!var#1" type="Auto" waiting="0.00" lane="N1E2_0" pos="6.44" speed="2.34" angle="180.00" x="192.00" y="193.56"/>
        <vehicle id="Phase1THR_flow.0" eclass="HBEFA3/PC_G_EU4" CO2="5172.22" CO="105.73" HC="0.60" NOx="2.20" PMx="0.10" fuel="2.22" electricity="0.00" noise="66.04" route="!Phase1THR_flow.0!var#1" type="Auto" waiting="0.00" lane="N1E2_0" pos="24.28" speed="7.71" angle="180.00" x="192.00" y="175.72"/>
        <vehicle id="Phase2_flow.0" eclass="HBEFA3/PC_G_EU4" CO2="5172.22" CO="105.73" HC="0.60" NOx="2.20" PMx="0.10" fuel="2.22" electricity="0.00" noise="66.04" route="!Phase2_flow.0!var#1" type="Auto" waiting="0.00" lane="C4E4_1" pos="24.28" speed="7.71" angle="0.00" x="204.80" y="-175.72"/>
        <vehicle id="Phase3Right_flow.0" eclass="HBEFA3/PC_G_EU4" CO2="3787.61" CO="149.70" HC="0.77" NOx="1.69" PMx="0.08" fuel="1.63" electricity="0.00" noise="67.12" route="!Phase3Right_flow.0!var#1" type="Auto" waiting="0.00" lane="C1E1_0" pos="6.44" speed="2.34" angle="90.00" x="6.44" y="-8.00"/>
        <vehicle id="Phase3THR_flow.0" eclass="HBEFA3/PC_G_EU4" CO2="5172.22" CO="105.73" HC="0.60" NOx="2.20" PMx="0.10" fuel="2.22" electricity="0.00" noise="66.04" route="!Phase3THR_flow.0!var#1" type="Auto" waiting="0.00" lane="C1E1_0" pos="24.28" speed="7.71" angle="90.00" x="24.28" y="-8.00"/>
        <vehicle id="Phase4_flow.0" eclass="HBEFA3/PC_G_EU4" CO2="5172.22" CO="105.73" HC="0.60" NOx="2.20" PMx="0.10" fuel="2.22" electricity="0.00" noise="66.04" route="!Phase4_flow.0!var#1" type="Auto" waiting="0.00" lane="J2E3_1" pos="24.28" speed="7.71" angle="270.00" x="375.72" y="4.80"/>
        <vehicle id="Phase5THR_flow.0" eclass="HBEFA3/PC_G_EU4" CO2="3787.61" CO="149.70" HC="0.77" NOx="1.69" PMx="0.08" fuel="1.63" electricity="0.00" noise="67.12" route="!Phase5THR_flow.0!var#1" type="Auto" waiting="0.00" lane="C4E4_0" pos="6.44" speed="2.34" angle="0.00" x="208.00" y="-193.56"/>
        <vehicle id="Phase7THR_flow.0" eclass="HBEFA3/PC_G_EU4" CO2="3787.61" CO="149.70" HC="0.77" NOx="1.69" PMx="0.08" fuel="1.63" electricity="0.00" noise="67.12" route="!Phase7THR_flow.0!var#1" type="Auto" waiting="0.00" lane="J2E3_0" pos="6.44" speed="2.34" angle="270.00" x="393.56" y="8.00"/>
    </timestep>
    <timestep time="5.00">
        <vehicle id="Phase1Right_flow.0" eclass="HBEFA3/PC_G_EU4" CO2="5859.96" CO="151.98" HC="0.83" NOx="2.59" PMx="0.13" fuel="2.52" electricity="0.00" noise="70.18" route="!Phase1Right_flow.0!var#1" type="Auto" waiting="0.00" lane="N1E2_0" pos="11.55" speed="5.11" angle="180.00" x="192.00" y="188.45"/>
        <vehicle id="Phase1THR_flow.0" eclass="HBEFA3/PC_G_EU4" CO2="6038.79" CO="106.48" HC="0.63" NOx="2.57" PMx="0.12" fuel="2.60" electricity="0.00" noise="67.22" route="!Phase1THR_flow.0!var#1" type="Auto" waiting="0.00" lane="N1E2_0" pos="33.62" speed="9.33" angle="180.00" x="192.00" y="166.38"/>
        <vehicle id="Phase2_flow.0" eclass="HBEFA3/PC_G_EU4" CO2="6930.22" CO="121.89" HC="0.72" NOx="2.98" PMx="0.14" fuel="2.98" electricity="0.00" noise="68.61" route="!Phase2_flow.0!var#1" type="Auto" waiting="0.00" lane="C4E4_1" pos="33.92" speed="9.64" angle="0.00" x="204.80" y="-166.08"/>
        <vehicle id="Phase3Right_flow.0" eclass="HBEFA3/PC_G_EU4" CO2="5859.96" CO="151.98" HC="0.83" NOx="2.59" PMx="0.13" fuel="2.52" electricity="0.00" noise="70.18" route="!Phase3Right_flow.0!var#1" type="Auto" waiting="0.00" lane="C1E1_0" pos="11.55" speed="5.11" angle="90.00" x="11.55" y="-8.00"/>
        <vehicle id="Phase3THR_flow.0" eclass="HBEFA3/PC_G_EU4" CO2="6038.79" CO="106.48" HC="0.63" NOx="2.57" PMx="0.12" fuel="2.60" electricity="0.00" noise="67.22" route="!Phase3THR_flow.0!var#1" type="Auto" waiting="0.00" lane="C1E1_0" pos="33.62" speed="9.33" angle="90.00" x="33.62" y="-8.00"/>
        <vehicle id="Phase4_flow.0" eclass="HBEFA3/PC_G_EU4" CO2="6930.22" CO="121.89" HC="0.72" NOx="2.98" PMx="0.14" fuel="2.98" electricity="0.00" noise="68.61" route="!Phase4_flow.0!var#1" type="Auto" waiting="0.00" lane="J2E3_1" pos="33.92" speed="9.64" angle="270.00" x="366.08" y="4.80"/>
        <vehicle id="Phase5THR_flow.0" eclass="HBEFA3/PC_G_EU4" CO2="3904.74" CO="127.74" HC="0.67" NOx="1.70" PMx="0.08" fuel="1.68" electricity="0.00" noise="64.66" route="!Phase5THR_flow.0!var#1" type="Auto" waiting="0.00" lane="C4E4_0" pos="10.39" speed="3.96" angle="0.00" x="208.00" y="-189.61"/>
        <vehicle id="Phase6_flow.0" eclass="HBEFA3/PC_G_EU4" CO2="2624.72" CO="164.78" HC="0.81" NOx="1.20" PMx="0.07" fuel="1.13" electricity="0.00" noise="55.94" route="!Phase6_flow.0!var#1" type="Auto" waiting="0.00" lane="N1E2_0" pos="4.10" speed="0.00" angle="180.00" x="192.00" y="195.90"/>
        <vehicle id="Phase7THR_flow.0" eclass="HBEFA3/PC_G_EU4" CO2="3904.74" CO="127.74" HC="0.67" NOx="1.70" PMx="0.08" fuel="1.68" electricity="0.00" noise="64.66" route="!Phase7THR_flow.0!var#1" type="Auto" waiting="0.00" lane="J2E3_0" pos="10.39" speed="3.96" angle="270.00" x="389.61" y="8.00"/>
        <vehicle id="Phase8_flow.0" eclass="HBEFA3/PC_G_EU4" CO2="2624.72" CO="164.78" HC="0.81" NOx="1.20" PMx="0.07" fuel="1.13" electricity="0.00" noise="55.94" route="!Phase8_flow.0!var#1" type="Auto" waiting="0.00" lane="C1E1_0" pos="4.10" speed="0.00" angle="90.00" x="4.10" y="-8.00"/>
    </timestep>
    <timestep time="6.00">
        <vehicle id="Phase1Right_flow.0" eclass="HBEFA3/PC_G_EU4" CO2="6584.09" CO="138.05" HC="0.79" NOx="2.87" PMx="0.14" fuel="2.83" electricity="0.00" noise="69.23" route="!Phase1Right_flow.0!var#1" type="Auto" waiting="0.00" lane="N1E2_0" pos="18.97" speed="7.43" angle="180.00" x="192.00" y="181.03"/>
        <vehicle id="Phase1THR_flow.0" eclass="HBEFA3/PC_G_EU4" CO2="6958.71" CO="110.04" HC="0.67" NOx="2.96" PMx="0.14" fuel="2.99" electricity="0.00" noise="68.31" route="!Phase1THR_flow.0!var#1" type="Auto" waiting="0.00" lane="N1E2_0" pos="44.63" speed="11.01" angle="180.00" x="192.00" y="155.37"/>
        <vehicle id="Phase2_flow.0" eclass="HBEFA3/PC_G_EU4" CO2="9885.75" CO="161.74" HC="0.98" NOx="4.31" PMx="0.21" fuel="4.25" electricity="0.00" noise="71.95" route="!Phase2_flow.0!var#1" type="Auto" waiting="0.00" lane="C4E4_1" pos="45.99" speed="12.08" angle="0.00" x="204.80" y="-154.01"/>
        <vehicle id="Phase3Right_flow.0" eclass="HBEFA3/PC_G_EU4" CO2="6584.09" CO="138.05" HC="0.79" NOx="2.87" PMx="0.14" fuel="2.83" electricity="0.00" noise="69.23" route="!Phase3Right_flow.0!var#1" type="Auto" waiting="0.00" lane="C1E1_0" pos="18.97" speed="7.43" angle="90.00" x="18.97" y="-8.00"/>
        <vehicle id="Phase3THR_flow.0" eclass="HBEFA3/PC_G_EU4" CO2="6958.71" CO="110.04" HC="0.67" NOx="2.96" PMx="0.14" fuel="2.99" electricity="0.00" noise="68.31" route="!Phase3THR_flow.0!var#1" type="Auto" waiting="0.00" lane="C1E1_0" pos="44.63" speed="11.01" angle="90.00" x="44.63" y="-8.00"/>
        <vehicle id="Phase4_flow.0" eclass="HBEFA3/PC_G_EU4" CO2="9885.75" CO="161.74" HC="0.98" NOx="4.31" PMx="0.21" fuel="4.25" electricity="0.00" noise="71.95" route="!Phase4_flow.0!var#1" type="Auto" waiting="0.00" lane="J2E3_1" pos="45.99" speed="12.08" angle="270.00" x="354.01" y="4.80"/>
        <vehicle id="Phase5Right_flow.0" eclass="HBEFA3/PC_G_EU4" CO2="2624.72" CO="164.78" HC="0.81" NOx="1.20" PMx="0.07" fuel="1.13" electricity="0.00" noise="55.94" route="!Phase5Right_flow.0!var#1" type="Auto" waiting="0.00" lane="C4E4_0" pos="4.10" speed="0.00" angle="0.00" x="208.00" y="-195.90"/>
        <vehicle id="Phase5THR_flow.0" eclass="HBEFA3/PC_G_EU4" CO2="6971.13" CO="154.24" HC="0.87" NOx="3.07" PMx="0.15" fuel="3.00" electricity="0.00" noise="70.88" route="!Phase5THR_flow.0!var#1" type="Auto" waiting="0.00" lane="C4E4_0" pos="17.12" speed="6.73" angle="0.00" x="208.00" y="-182.88"/>
        <vehicle id="Phase6_flow.0" eclass="HBEFA3/PC_G_EU4" CO2="2715.18" CO="151.57" HC="0.75" NOx="1.22" PMx="0.06" fuel="1.17" electricity="0.00" noise="60.10" route="!Phase6_flow.0!var#1" type="Auto" waiting="0.00" lane="N1E2_0" pos="4.97" speed="0.87" angle="180.00" x="192.00" y="195.03"/>
        <vehicle id="Phase7Right_flow.0" eclass="HBEFA3/PC_G_EU4" CO2="2624.72" CO="164.78" HC="0.81" NOx="1.20" PMx="0.07" fuel="1.13" electricity="0.00" noise="55.94" route="!Phase7Right_flow.0!var#1" type="Auto" waiting="0.00" lane="J2E3_0" pos="4.10" speed="0.00" angle="270.00" x="395.90" y="8.00"/>
        <vehicle id="Phase7THR_flow.0" eclass="HBEFA3/PC_G_EU4" CO2="6971.13" CO="154.24" HC="0.87" NOx="3.07" PMx="0.15" fuel="3.00" electricity="0.00" noise="70.88" route="!Phase7THR_flow.0!var#1" type="Auto" waiting="0.00" lane="J2E3_0" pos="17.12" speed="6.73" angle="270.00" x="382.88" y="8.00"/>
        <vehicle id="Phase8_flow.0" eclass="HBEFA3/PC_G_EU4" CO2="2715.18" CO="151.57" HC="0.75" NOx="1.22" PMx="0.06" fuel="1.17" electricity="0.00" noise="60.10" route="!Phase8_flow.0!var#1" type="Auto" waiting="0.00" lane="C1E1_0" pos="4.97" speed="0.87" angle="90.00" x="4.97" y="-8.00"/>
    </timestep>
    <timestep time="7.00">
        <vehicle id="Phase1Right_flow.0" eclass="HBEFA3/PC_G_EU4" CO2="6155.12" CO="110.87" HC="0.65" NOx="2.63" PMx="0.12" fuel="2.65" electricity="0.00" noise="67.47" route="!Phase1Right_flow.0!var#1" type="Auto" waiting="0.00" lane="N1E2_0" pos="28.11" speed="9.13" angle="180.00" x="192.00" y="171.89"/>
        <vehicle id="Phase1THR_flow.0" eclass="HBEFA3/PC_G_EU4" CO2="9004.01" CO="136.95" HC="0.84" NOx="3.87" PMx="0.19" fuel="3.87" electricity="0.00" noise="70.57" route="!Phase1THR_flow.0!var#1" type="Auto" waiting="0.00" lane="N1E2_0" pos="57.63" speed="13.00" angle="180.00" x="192.00" y="142.37"/>
        <vehicle id="Phase2_flow.0" eclass="HBEFA3/PC_G_EU4" CO2="3125.20" CO="20.45" HC="0.16" NOx="1.11" PMx="0.03" fuel="1.34" electricity="0.00" noise="64.24" route="!Phase2_flow.0!var#1" type="Auto" waiting="0.00" lane="C4E4_1" pos="58.35" speed="12.36" angle="0.00" x="204.80" y="-141.65"/>
        <vehicle id="Phase3Right_flow.0" eclass="HBEFA3/PC_G_EU4" CO2="6155.12" CO="110.87" HC="0.65" NOx="2.63" PMx="0.12" fuel="2.65" electricity="0.00" noise="67.47" route="!Phase3Right_flow.0!var#1" type="Auto" waiting="0.00" lane="C1E1_0" pos="28.11" speed="9.13" angle="90.00" x="28.11" y="-8.00"/>
        <vehicle id="Phase3THR_flow.0" eclass="HBEFA3/PC_G_EU4" CO2="9004.01" CO="136.95" HC="0.84" NOx="3.87" PMx="0.19" fuel="3.87" electricity="0.00" noise="70.57" route="!Phase3THR_flow.0!var#1" type="Auto" waiting="0.00" lane="C1E1_0" pos="57.63" speed="13.00" angle="90.00" x="57.63" y="-8.00"/>
        <vehicle id="Phase4_flow.0" eclass="HBEFA3/PC_G_EU4" CO2="8931.54" CO="129.67" HC="0.81" NOx="3.81" PMx="0.18" fuel="3.84" electricity="0.00" noise="70.37" route="!Phase4_flow.0!var#1" type="Auto" waiting="0.00" lane="J2E3_1" pos="59.89" speed="13.90" angle="270.00" x="340.11" y="4.80"/>
        <vehicle id="Phase5Right_flow.0" eclass="HBEFA3/PC_G_EU4" CO2="3767.66" CO="149.57" HC="0.77" NOx="1.68" PMx="0.08" fuel="1.62" electricity="0.00" noise="67.04" route="!Phase5Right_flow.0!var#1" type="Auto" waiting="0.00" lane="C4E4_0" pos="6.42" speed="2.32" angle="0.00" x="208.00" y="-193.58"/>
        <vehicle id="Phase5THR_flow.0" eclass="HBEFA3/PC_G_EU4" CO2="5761.39" CO="110.30" HC="0.64" NOx="2.46" PMx="0.11" fuel="2.48" electricity="0.00" noise="66.98" route="!Phase5THR_flow.0!var#1" type="Auto" waiting="0.00" lane="C4E4_0" pos="25.53" speed="8.41" angle="0.00" x="208.00" y="-174.47"/>
        <vehicle id="Phase6_flow.0" eclass="HBEFA3/PC_G_EU4" CO2="3619.43" CO="140.58" HC="0.72" NOx="1.60" PMx="0.08" fuel="1.56" electricity="0.00" noise="65.04" route="!Phase6_flow.0!var#1" type="Auto" waiting="0.00" lane="N1E2_0" pos="7.67" speed="2.70" angle="180.00" x="192.00" y="192.33"/>
        <vehicle id="Phase7Right_flow.0" eclass="HBEFA3/PC_G_EU4" CO2="3767.66" CO="149.57" HC="0.77" NOx="1.68" PMx="0.08" fuel="1.62" electricity="0.00" noise="67.04" route="!Phase7Right_flow.0!var#1" type="Auto" waiting="0.00" lane="J2E3_0" pos="6.42" speed="2.32" angle="270.00" x="393.58" y="8.00"/>
        <vehicle id="Phase7THR_flow.0" eclass="HBEFA3/PC_G_EU4" CO2="5761.39" CO="110.30" HC="0.64" NOx="2.46" PMx="0.11" fuel="2.48" electricity="0.00" noise="66.98" route="!Phase7THR_flow.0!var#1" type="Auto" waiting="0.00" lane="J2E3_0" pos="25.53" speed="8.41" angle="270.00" x="374.47" y="8.00"/>
        <vehicle id="Phase8_flow.0" eclass="HBEFA3/PC_G_EU4" CO2="3619.43" CO="140.58" HC="0.72" NOx="1.60" PMx="0.08" fuel="1.56" electricity="0.00" noise="65.04" route="!Phase8_flow.0!var#1" type="Auto" waiting="0.00" lane="C1E1_0" pos="7.67" speed="2.70" angle="90.00" x="7.67" y="-8.00"/>
    </timestep>
    <timestep time="8.00">
        <vehicle id="Phase1Right_flow.0" eclass="HBEFA3/PC_G_EU4" CO2="7849.95" CO="127.61" HC="0.77" NOx="3.37" PMx="0.16" fuel="3.37" electricity="0.00" noise="69.53" route="!Phase1Right_flow.0!var#1" type="Auto" waiting="0.00" lane="N1E2_0" pos="39.21" speed="11.10" angle="180.00" x="192.00" y="160.79"/>
        <vehicle id="Phase1THR_flow.0" eclass="HBEFA3/PC_G_EU4" CO2="9100.04" CO="128.34" HC="0.80" NOx="3.87" PMx="0.19" fuel="3.91" electricity="0.00" noise="70.50" route="!Phase1THR_flow.0!var#1" type="Auto" waiting="0.00" lane="N1E2_0" pos="72.36" speed="14.74" angle="180.00" x="192.00" y="127.64"/>
        <vehicle id="Phase2_flow.0" eclass="HBEFA3/PC_G_EU4" CO2="0.00" CO="0.00" HC="0.00" NOx="0.00" PMx="0.00" fuel="0.00" electricity="0.00" noise="62.58" route="!Phase2_flow.0!var#1" type="Auto" waiting="0.00" lane="C4E4_1" pos="70.42" speed="12.07" angle="0.00" x="204.80" y="-129.58"/>
        <vehicle id="Phase3Right_flow.0" eclass="HBEFA3/PC_G_EU4" CO2="7849.95" CO="127.61" HC="0.77" NOx="3.37" PMx="0.16" fuel="3.37" electricity="0.00" noise="69.53" route="!Phase3Right_flow.0!var#1" type="Auto" waiting="0.00" lane="C1E1_0" pos="39.21" speed="11.10" angle="90.00" x="39.21" y="-8.00"/>
        <vehicle id="Phase3THR_flow.0" eclass="HBEFA3/PC_G_EU4" CO2="5101.14" CO="51.58" HC="0.35" NOx="2.01" PMx="0.08" fuel="2.19" electricity="0.00" noise="66.60" route="!Phase3THR_flow.0!var#1" type="Auto" waiting="0.00" lane="C1E1_0" pos="71.40" speed="13.77" angle="90.00" x="71.40" y="-8.00"/>
        <vehicle id="Phase4_flow.0" eclass="HBEFA3/PC_G_EU4" CO2="8300.62" CO="108.75" HC="0.70" NOx="3.48" PMx="0.17" fuel="3.57" electricity="0.00" noise="69.78" route="!Phase4_flow.0!var#1" type="Auto" waiting="0.00" lane="J2E3_1" pos="75.24" speed="15.35" angle="270.00" x="324.76" y="4.80"/>
        <vehicle id="Phase5Right_flow.0" eclass="HBEFA3/PC_G_EU4" CO2="4444.73" CO="133.86" HC="0.71" NOx="1.95" PMx="0.09" fuel="1.91" electricity="0.00" noise="66.41" route="!Phase5Right_flow.0!var#1" type="Auto" waiting="0.00" lane="C4E4_0" pos="10.73" speed="4.31" angle="0.00" x="208.00" y="-189.27"/>
        <vehicle id="Phase5THR_flow.0" eclass="HBEFA3/PC_G_EU4" CO2="9859.54" CO="169.21" HC="1.01" NOx="4.32" PMx="0.21" fuel="4.24" electricity="0.00" noise="72.43" route="!Phase5THR_flow.0!var#1" type="Auto" waiting="0.00" lane="C4E4_0" pos="36.60" speed="11.08" angle="0.00" x="208.00" y="-163.40"/>
        <vehicle id="Phase6_flow.0" eclass="HBEFA3/PC_G_EU4" CO2="5085.28" CO="138.12" HC="0.75" NOx="2.23" PMx="0.11" fuel="2.19" electricity="0.00" noise="67.85" route="!Phase6_flow.0!var#1" type="Auto" waiting="0.00" lane="N1E2_0" pos="12.62" speed="4.95" angle="180.00" x="192.00" y="187.38"/>
        <vehicle id="Phase7Right_flow.0" eclass="HBEFA3/PC_G_EU4" CO2="4444.73" CO="133.86" HC="0.71" NOx="1.95" PMx="0.09" fuel="1.91" electricity="0.00" noise="66.41" route="!Phase7Right_flow.0!var#1" type="Auto" waiting="0.00" lane="J2E3_0" pos="10.73" speed="4.31" angle="270.00" x="389.27" y="8.00"/>
        <vehicle id="Phase7THR_flow.0" eclass="HBEFA3/PC_G_EU4" CO2="9859.54" CO="169.21" HC="1.01" NOx="4.32" PMx="0.21" fuel="4.24" electricity="0.00" noise="72.43" route="!Phase7THR_flow.0!var#1" type="Auto" waiting="0.00" lane="J2E3_0" pos="36.60" speed="11.08" angle="270.00" x="363.40" y="8.00"/>
        <vehicle id="Phase8_flow.0" eclass="HBEFA3/PC_G_EU4" CO2="5085.28" CO="138.12" HC="0.75" NOx="2.23" PMx="0.11" fuel="2.19" electricity="0.00" noise="67.85" route="!Phase8_flow.0!var#1" type="Auto" waiting="0.00" lane="C1E1_0" pos="12.62" speed="4.95" angle="90.00" x="12.62" y="-8.00"/>
    </timestep>
    <timestep time="9.00">
        <vehicle id="Bus_East.0" eclass="Energy/default" CO2="0.00" CO="0.00" HC="0.00" NOx="0.00" PMx="0.00" fuel="0.00" electricity="0.06" noise="55.94" route="!Bus_East" type="ElectricBus" waiting="0.00" lane="C1E1_0" pos="12.10" speed="0.00" angle="90.00" x="12.10" y="-8.00"/>
        <vehicle id="Phase1Right_flow.0" eclass="HBEFA3/PC_G_EU4" CO2="5536.09" CO="71.61" HC="0.46" NOx="2.26" PMx="0.10" fuel="2.38" electricity="0.00" noise="66.57" route="!Phase1Right_flow.0!var#1" type="Auto" waiting="0.00" lane="N1E2_0" pos="51.36" speed="12.15" angle="180.00" x="192.00" y="148.64"/>
        <vehicle id="Phase1THR_flow.0" eclass="HBEFA3/PC_G_EU4" CO2="4062.58" CO="22.52" HC="0.20" NOx="1.49" PMx="0.06" fuel="1.75" electricity="0.00" noise="66.40" route="!Phase1THR_flow.0!var#1" type="Auto" waiting="0.00" lane="N1E2_0" pos="87.51" speed="15.14" angle="180.00" x="192.00" y="112.49"/>
        <vehicle id="Phase2_flow.0" eclass="HBEFA3/PC_G_EU4" CO2="4954.86" CO="54.44" HC="0.36" NOx="1.96" PMx="0.08" fuel="2.13" electricity="0.00" noise="66.16" route="!Phase2_flow.0!var#1" type="Auto" waiting="0.00" lane="C4E4_1" pos="83.30" speed="12.87" angle="0.00" x="204.80" y="-116.70"/>
        <vehicle id="Phase3Right_flow.0" eclass="HBEFA3/PC_G_EU4" CO2="7286.91" CO="104.13" HC="0.65" NOx="3.07" PMx="0.14" fuel="3.13" electricity="0.00" noise="68.61" route="!Phase3Right_flow.0!var#1" type="Auto" waiting="0.00" lane="C1E1_0" pos="51.85" speed="12.64" angle="90.00" x="51.85" y="-8.00"/>
        <vehicle id="Phase3THR_flow.0" eclass="HBEFA3/PC_G_EU4" CO2="3863.25" CO="23.66" HC="0.20" NOx="1.42" PMx="0.05" fuel="1.66" electricity="0.00" noise="65.78" route="!Phase3THR_flow.0!var#1" type="Auto" waiting="0.00" lane="C1E1_0" pos="85.58" speed="14.18" angle="90.00" x="85.58" y="-8.00"/>
        <vehicle id="Phase4_flow.0" eclass="HBEFA3/PC_G_EU4" CO2="5964.85" CO="57.04" HC="0.40" NOx="2.36" PMx="0.10" fuel="2.56" electricity="0.00" noise="68.12" route="!Phase4_flow.0!var#1" type="Auto" waiting="0.00" lane="J2E3_1" pos="91.40" speed="16.16" angle="270.00" x="308.60" y="4.80"/>
        <vehicle id="Phase5Right_flow.0" eclass="HBEFA3/PC_G_EU4" CO2="5051.39" CO="121.99" HC="0.67" NOx="2.18" PMx="0.10" fuel="2.17" electricity="0.00" noise="66.54" route="!Phase5Right_flow.0!var#1" type="Auto" waiting="0.00" lane="C4E4_0" pos="16.86" speed="6.14" angle="0.00" x="208.00" y="-183.14"/>
        <vehicle id="Phase5THR_flow.0" eclass="HBEFA3/PC_G_EU4" CO2="3108.21" CO="27.58" HC="0.20" NOx="1.13" PMx="0.04" fuel="1.34" electricity="0.00" noise="63.69" route="!Phase5THR_flow.0!var#1" type="Auto" waiting="0.00" lane="C4E4_0" pos="48.00" speed="11.39" angle="0.00" x="208.00" y="-152.00"/>
        <vehicle id="Phase6_flow.0" eclass="HBEFA3/PC_G_EU4" CO2="6218.16" CO="133.61" HC="0.76" NOx="2.71" PMx="0.13" fuel="2.67" electricity="0.00" noise="68.63" route="!Phase6_flow.0!var#1" type="Auto" waiting="0.00" lane="N1E2_0" pos="19.79" speed="7.16" angle="180.00" x="192.00" y="180.21"/>
        <vehicle id="Phase7Right_flow.0" eclass="HBEFA3/PC_G_EU4" CO2="5051.39" CO="121.99" HC="0.67" NOx="2.18" PMx="0.10" fuel="2.17" electricity="0.00" noise="66.54" route="!Phase7Right_flow.0!var#1" type="Auto" waiting="0.00" lane="J2E3_0" pos="16.86" speed="6.14" angle="270.00" x="383.14" y="8.00"/>
        <vehicle id="Phase7THR_flow.0" eclass="HBEFA3/PC_G_EU4" CO2="0.00" CO="0.00" HC="0.00" NOx="0.00" PMx="0.00" fuel="0.00" electricity="0.00" noise="61.60" route="!Phase7THR_flow.0!var#1" type="Auto" waiting="0.00" lane="J2E3_0" pos="47.39" speed="10.79" angle="270.00" x="352.61" y="8.00"/>
        <vehicle id="Phase8_flow.0" eclass="HBEFA3/PC_G_EU4" CO2="6218.16" CO="133.61" HC="0.76" NOx="2.71" PMx="0.13" fuel="2.67" electricity="0.00" noise="68.63" route="!Phase8_flow.0!var#1" type="Auto" waiting="0.00" lane="C1E1_0" pos="19.79" speed="7.16" angle="90.00" x="19.79" y="-8.00"/>
    </timestep>
    <timestep time="10.00">
        <vehicle id="Bus_East.0" eclass="Energy/default" CO2="0.00" CO="0.00" HC="0.00" NOx="0.00" PMx="0.00" fuel="0.00" electricity="3.38" noise="60.72" route="!Bus_East" type="ElectricBus" waiting="0.00" lane="C1E1_0" pos="13.10" speed="1.00" angle="90.00" x="13.10" y="-8.00"/>
        <vehicle id="Bus_West.0" eclass="Energy/default" CO2="0.00" CO="0.00" HC="0.00" NOx="0.00" PMx="0.00" fuel="0.00" electricity="0.06" noise="55.94" route="!Bus_West" type="ElectricBus" waiting="0.00" lane="J2E3_0" pos="12.10" speed="0.00" angle="270.00" x="387.90" y="8.00"/>
        <vehicle id="Phase1Right_flow.0" eclass="HBEFA3/PC_G_EU4" CO2="3397.52" CO="24.94" HC="0.19" NOx="1.24" PMx="0.04" fuel="1.46" electricity="0.00" noise="64.56" route="!Phase1Right_flow.0!var#1" type="Auto" waiting="0.00" lane="N1E2_0" pos="63.88" speed="12.51" angle="180.00" x="192.00" y="136.12"/>
        <vehicle id="Phase1THR_flow.0" eclass="HBEFA3/PC_G_EU4" CO2="0.00" CO="0.00" HC="0.00" NOx="0.00" PMx="0.00" fuel="0.00" electricity="0.00" noise="64.60" route="!Phase1THR_flow.0!var#1" type="Auto" waiting="0.00" lane="N1E2_0" pos="102.35" speed="14.84" angle="180.00" x="192.00" y="97.65"/>
        <vehicle id="Phase2_flow.0" eclass="HBEFA3/PC_G_EU4" CO2="0.00" CO="0.00" HC="0.00" NOx="0.00" PMx="0.00" fuel="0.00" electricity="0.00" noise="61.78" route="!Phase2_flow.0!var#1" type="Auto" waiting="0.00" lane="C4E4_1" pos="95.45" speed="12.16" angle="0.00" x="204.80" y="-104.55"/>
        <vehicle id="Phase3Right_flow.0" eclass="HBEFA3/PC_G_EU4" CO2="9555.45" CO="138.87" HC="0.86" NOx="4.09" PMx="0.20" fuel="4.11" electricity="0.00" noise="70.97" route="!Phase3Right_flow.0!var#1" type="Auto" waiting="0.00" lane="C1E1_0" pos="66.37" speed="14.53" angle="90.00" x="66.37" y="-8.00"/>