<?xml version="1.0" encoding="UTF-8"?>

<!-- generated on 2022-08-20 22:24:22 by Eclipse SUMO GUI Version 1.11.0
<configuration xmlns:xsi="http://www.w3.org/2001/XMLSchema-instance" xsi:noNamespaceSchemaLocation="http://sumo.dlr.de/xsd/sumoConfiguration.xsd">

    <input>
        <net-file value="bus_operation.net.xml"/>
        <route-files value="bus_operation_VC_0.5_flow.rou.xml"/>
        <additional-files value="bus_operation.add.xml"/>
    </input>

    <output>
        <emission-output value="result/bus_operation_emissionInfo.xml"/>
        <battery-output value="result/bus_operation_batteryOut.xml"/>
        <battery-output.precision value="4"/>
        <summary-output value="result/bus_operation_summary.xml"/>
        <tripinfo-output value="result/bus_operation_tripInfo.xml"/>
    </output>

    <time>
        <begin value="0"/>
        <end value="7200"/>
    </time>

    <battery>
        <device.battery.probability value="1"/>
    </battery>

    <traci_server>
        <remote-port value="62534"/>
    </traci_server>

    <random_number>
        <random value="true"/>
        <seed value="8"/>
    </random_number>

</configuration>
-->

<tripinfos xmlns:xsi="http://www.w3.org/2001/XMLSchema-instance" xsi:noNamespaceSchemaLocation="http://sumo.dlr.de/xsd/tripinfo_file.xsd">
    <tripinfo id="Phase1THR_flow.0" depart="0.00" departLane="N1E2_0" departPos="4.10" departSpeed="0.00" departDelay="0.00" arrival="34.00" arrivalLane="E4C4_0" arrivalPos="160.00" arrivalSpeed="11.92" duration="34.00" routeLength="398.04" waitingTime="0.00" waitingCount="0" stopTime="0.00" timeLoss="3.91" rerouteNo="1" devices="tripinfo_Phase1THR_flow.0 routing_Phase1THR_flow.0 emissions_Phase1THR_flow.0 battery_Phase1THR_flow.0" vType="Auto" speedFactor="0.95" vaporized="">
        <emissions CO_abs="1346.299995" CO2_abs="93226.578708" HC_abs="8.326231" PMx_abs="1.642465" NOx_abs="37.972982" fuel_abs="40.074062" electricity_abs="0"/>
    </tripinfo>
    <tripinfo id="Phase5THR_flow.0" depart="2.00" departLane="C4E4_0" departPos="4.10" departSpeed="0.00" departDelay="2.00" arrival="34.00" arrivalLane="E2N1_0" arrivalPos="160.00" arrivalSpeed="14.47" duration="32.00" routeLength="398.04" waitingTime="0.00" waitingCount="0" stopTime="0.00" timeLoss="4.56" rerouteNo="1" devices="tripinfo_Phase5THR_flow.0 routing_Phase5THR_flow.0 emissions_Phase5THR_flow.0 battery_Phase5THR_flow.0" vType="Auto" speedFactor="1.04" vaporized="">
        <emissions CO_abs="1579.344316" CO2_abs="105649.628703" HC_abs="9.695267" PMx_abs="1.935307" NOx_abs="43.337274" fuel_abs="45.414144" electricity_abs="0"/>
    </tripinfo>
    <tripinfo id="Phase1Right_flow.0" depart="2.00" departLane="N1E2_0" departPos="4.10" departSpeed="0.00" departDelay="2.00" arrival="38.00" arrivalLane="E1C1_0" arrivalPos="160.00" arrivalSpeed="11.84" duration="36.00" routeLength="379.87" waitingTime="0.00" waitingCount="0" stopTime="0.00" timeLoss="5.96" rerouteNo="1" devices="tripinfo_Phase1Right_flow.0 routing_Phase1Right_flow.0 emissions_Phase1Right_flow.0 battery_Phase1Right_flow.0" vType="Auto" speedFactor="0.95" vaporized="">
        <emissions CO_abs="1890.329215" CO2_abs="116568.662254" HC_abs="11.351962" PMx_abs="2.091671" NOx_abs="47.878063" fuel_abs="50.107915" electricity_abs="0"/>
    </tripinfo>
    <tripinfo id="Phase5Right_flow.0" depart="5.00" departLane="C4E4_0" departPos="4.10" departSpeed="0.00" departDelay="5.00" arrival="42.00" arrivalLane="E3J2_0" arrivalPos="160.00" arrivalSpeed="11.87" duration="37.00" routeLength="379.87" waitingTime="0.00" waitingCount="0" stopTime="0.00" timeLoss="5.14" rerouteNo="1" devices="tripinfo_Phase5Right_flow.0 routing_Phase5Right_flow.0 emissions_Phase5Right_flow.0 battery_Phase5Right_flow.0" vType="Auto" speedFactor="0.89" vaporized="">
        <emissions CO_abs="1775.108804" CO2_abs="117577.619769" HC_abs="10.833612" PMx_abs="2.002620" NOx_abs="47.652932" fuel_abs="50.541669" electricity_abs="0"/>
    </tripinfo>
    <tripinfo id="Phase1THR_flow.1" depart="14.00" departLane="N1E2_0" departPos="4.10" departSpeed="0.00" departDelay="0.77" arrival="44.00" arrivalLane="E4C4_0" arrivalPos="160.00" arrivalSpeed="14.41" duration="30.00" routeLength="398.04" waitingTime="0.00" waitingCount="0" stopTime="0.00" timeLoss="4.17" rerouteNo="1" devices="tripinfo_Phase1THR_flow.1 routing_Phase1THR_flow.1 emissions_Phase1THR_flow.1 battery_Phase1THR_flow.1" vType="Auto" speedFactor="1.11" vaporized="">
        <emissions CO_abs="1355.906324" CO2_abs="106600.312943" HC_abs="8.646868" PMx_abs="1.828573" NOx_abs="42.510293" fuel_abs="45.822823" electricity_abs="0"/>
    </tripinfo>
    <tripinfo id="Phase5THR_flow.1" depart="14.00" departLane="C4E4_0" departPos="4.10" departSpeed="0.00" departDelay="0.42" arrival="46.00" arrivalLane="E2N1_0" arrivalPos="160.00" arrivalSpeed="13.99" duration="32.00" routeLength="398.04" waitingTime="0.00" waitingCount="0" stopTime="0.00" timeLoss="4.65" rerouteNo="1" devices="tripinfo_Phase5THR_flow.1 routing_Phase5THR_flow.1 emissions_Phase5THR_flow.1 battery_Phase5THR_flow.1" vType="Auto" speedFactor="1.07" vaporized="">
        <emissions CO_abs="1319.097125" CO2_abs="99779.354299" HC_abs="8.305245" PMx_abs="1.671859" NOx_abs="39.669271" fuel_abs="42.890879" electricity_abs="0"/>
    </tripinfo>
    <tripinfo id="Phase6_flow.0" depart="5.00" departLane="N1E2_0" departPos="4.10" departSpeed="0.00" departDelay="5.00" arrival="56.00" arrivalLane="E3J2_0" arrivalPos="160.00" arrivalSpeed="14.65" duration="51.00" routeLength="400.69" waitingTime="15.00" waitingCount="1" stopTime="0.00" timeLoss="23.82" rerouteNo="1" devices="tripinfo_Phase6_flow.0 routing_Phase6_flow.0 emissions_Phase6_flow.0 battery_Phase6_flow.0" vType="Auto" speedFactor="1.08" vaporized="">
        <emissions CO_abs="3881.655488" CO2_abs="163949.888232" HC_abs="21.559361" PMx_abs="3.252922" NOx_abs="69.228894" fuel_abs="70.475675" electricity_abs="0"/>
    </tripinfo>
    <tripinfo id="Phase2_flow.0" depart="0.00" departLane="C4E4_0" departPos="4.10" departSpeed="0.00" departDelay="0.00" arrival="60.00" arrivalLane="E1C1_0" arrivalPos="160.00" arrivalSpeed="12.14" duration="60.00" routeLength="400.69" waitingTime="18.00" waitingCount="1" stopTime="0.00" timeLoss="26.03" rerouteNo="1" devices="tripinfo_Phase2_flow.0 routing_Phase2_flow.0 emissions_Phase2_flow.0 battery_Phase2_flow.0" vType="Auto" speedFactor="0.88" vaporized="">
        <emissions CO_abs="4374.705464" CO2_abs="157940.305983" HC_abs="23.633303" PMx_abs="3.116804" NOx_abs="66.985273" fuel_abs="67.892916" electricity_abs="0"/>
    </tripinfo>
    <tripinfo id="Phase7THR_flow.0" depart="2.00" departLane="J2E3_0" departPos="4.10" departSpeed="0.00" departDelay="2.00" arrival="73.00" arrivalLane="E1C1_0" arrivalPos="160.00" arrivalSpeed="13.44" duration="71.00" routeLength="398.04" waitingTime="34.00" waitingCount="1" stopTime="0.00" timeLoss="43.40" rerouteNo="1" devices="tripinfo_Phase7THR_flow.0 routing_Phase7THR_flow.0 emissions_Phase7THR_flow.0 battery_Phase7THR_flow.0" vType="Auto" speedFactor="1.07" vaporized="">
        <emissions CO_abs="6894.262593" CO2_abs="204981.881507" HC_abs="36.200639" PMx_abs="4.255024" NOx_abs="87.857381" fuel_abs="88.115177" electricity_abs="0"/>
    </tripinfo>
    <tripinfo id="Phase3THR_flow.1" depart="13.00" departLane="C1E1_0" departPos="4.10" departSpeed="0.00" departDelay="4.16" arrival="73.00" arrivalLane="E3J2_0" arrivalPos="160.00" arrivalSpeed="12.57" duration="60.00" routeLength="398.04" waitingTime="22.00" waitingCount="1" stopTime="0.00" timeLoss="30.78" rerouteNo="1" devices="tripinfo_Phase3THR_flow.1 routing_Phase3THR_flow.1 emissions_Phase3THR_flow.1 battery_Phase3THR_flow.1" vType="Auto" speedFactor="0.98" vaporized="">
        <emissions CO_abs="5028.133311" CO2_abs="174918.179947" HC_abs="26.996151" PMx_abs="3.447562" NOx_abs="73.876507" fuel_abs="75.191291" electricity_abs="0"/>
    </tripinfo>
    <tripinfo id="Phase3Right_flow.0" depart="2.00" departLane="C1E1_0" departPos="4.10" departSpeed="0.00" departDelay="2.00" arrival="74.00" arrivalLane="E4C4_0" arrivalPos="160.00" arrivalSpeed="14.23" duration="72.00" routeLength="379.87" waitingTime="33.00" waitingCount="1" stopTime="0.00" timeLoss="45.36" rerouteNo="1" devices="tripinfo_Phase3Right_flow.0 routing_Phase3Right_flow.0 emissions_Phase3Right_flow.0 battery_Phase3Right_flow.0" vType="Auto" speedFactor="1.07" vaporized="">
        <emissions CO_abs="7007.920470" CO2_abs="200886.498342" HC_abs="36.632824" PMx_abs="4.303126" NOx_abs="87.263559" fuel_abs="86.354682" electricity_abs="0"/>
    </tripinfo>
    <tripinfo id="Phase7Right_flow.0" depart="5.00" departLane="J2E3_0" departPos="4.10" departSpeed="0.00" departDelay="5.00" arrival="74.00" arrivalLane="E2N1_0" arrivalPos="160.00" arrivalSpeed="11.14" duration="69.00" routeLength="379.87" waitingTime="30.00" waitingCount="1" stopTime="0.00" timeLoss="36.94" rerouteNo="1" devices="tripinfo_Phase7Right_flow.0 routing_Phase7Right_flow.0 emissions_Phase7Right_flow.0 battery_Phase7Right_flow.0" vType="Auto" speedFactor="0.87" vaporized="">
        <emissions CO_abs="6024.361406" CO2_abs="176331.903301" HC_abs="31.568814" PMx_abs="3.617537" NOx_abs="75.693865" fuel_abs="75.799573" electricity_abs="0"/>
    </tripinfo>
    <tripinfo id="Phase7THR_flow.1" depart="12.00" departLane="J2E3_0" departPos="4.10" departSpeed="0.00" departDelay="5.73" arrival="75.00" arrivalLane="E1C1_1" arrivalPos="160.00" arrivalSpeed="13.36" duration="63.00" routeLength="398.04" waitingTime="25.00" waitingCount="1" stopTime="0.00" timeLoss="34.54" rerouteNo="1" devices="tripinfo_Phase7THR_flow.1 routing_Phase7THR_flow.1 emissions_Phase7THR_flow.1 battery_Phase7THR_flow.1" vType="Auto" speedFactor="1.03" vaporized="">
        <emissions CO_abs="5493.231362" CO2_abs="187322.793883" HC_abs="29.421344" PMx_abs="3.803109" NOx_abs="79.797590" fuel_abs="80.523533" electricity_abs="0"/>
    </tripinfo>
    <tripinfo id="Phase3THR_flow.0" depart="0.00" departLane="C1E1_0" departPos="4.10" departSpeed="0.00" departDelay="0.00" arrival="76.00" arrivalLane="E3J2_0" arrivalPos="160.00" arrivalSpeed="11.52" duration="76.00" routeLength="398.04" waitingTime="34.00" waitingCount="1" stopTime="0.00" timeLoss="42.34" rerouteNo="1" devices="tripinfo_Phase3THR_flow.0 routing_Phase3THR_flow.0 emissions_Phase3THR_flow.0 battery_Phase3THR_flow.0" vType="Auto" speedFactor="0.87" vaporized="">
        <emissions CO_abs="7056.672898" CO2_abs="194929.159598" HC_abs="36.703423" PMx_abs="4.048262" NOx_abs="83.973475" fuel_abs="83.794219" electricity_abs="0"/>
    </tripinfo>
    <tripinfo id="Phase3THR_flow.2" depart="18.00" departLane="C1E1_0" departPos="4.10" departSpeed="0.00" departDelay="0.31" arrival="76.00" arrivalLane="E3J2_1" arrivalPos="160.00" arrivalSpeed="12.04" duration="58.00" routeLength="398.04" waitingTime="18.00" waitingCount="1" stopTime="0.00" timeLoss="27.20" rerouteNo="1" devices="tripinfo_Phase3THR_flow.2 routing_Phase3THR_flow.2 emissions_Phase3THR_flow.2 battery_Phase3THR_flow.2" vType="Auto" speedFactor="0.94" vaporized="">
        <emissions CO_abs="4219.875433" CO2_abs="155087.122347" HC_abs="22.869895" PMx_abs="3.088301" NOx_abs="65.888360" fuel_abs="66.666334" electricity_abs="0"/>
    </tripinfo>
    <tripinfo id="Phase7THR_flow.2" depart="15.00" departLane="J2E3_0" departPos="4.10" departSpeed="0.00" departDelay="2.46" arrival="78.00" arrivalLane="E1C1_1" arrivalPos="160.00" arrivalSpeed="12.84" duration="63.00" routeLength="398.04" waitingTime="24.00" waitingCount="1" stopTime="0.00" timeLoss="31.86" rerouteNo="1" devices="tripinfo_Phase7THR_flow.2 routing_Phase7THR_flow.2 emissions_Phase7THR_flow.2 battery_Phase7THR_flow.2" vType="Auto" speedFactor="0.95" vaporized="">
        <emissions CO_abs="4903.620123" CO2_abs="169092.120426" HC_abs="26.298919" PMx_abs="3.327709" NOx_abs="71.422038" fuel_abs="72.686911" electricity_abs="0"/>
    </tripinfo>
    <tripinfo id="Phase3THR_flow.3" depart="27.00" departLane="C1E1_0" departPos="4.10" departSpeed="0.00" departDelay="0.47" arrival="78.00" arrivalLane="E3J2_1" arrivalPos="160.00" arrivalSpeed="13.79" duration="51.00" routeLength="398.04" waitingTime="11.00" waitingCount="1" stopTime="0.00" timeLoss="23.19" rerouteNo="1" devices="tripinfo_Phase3THR_flow.3 routing_Phase3THR_flow.3 emissions_Phase3THR_flow.3 battery_Phase3THR_flow.3" vType="Auto" speedFactor="1.06" vaporized="">
        <emissions CO_abs="3457.508852" CO2_abs="166700.472373" HC_abs="19.706350" PMx_abs="3.317559" NOx_abs="70.702601" fuel_abs="71.657584" electricity_abs="0"/>
    </tripinfo>
    <tripinfo id="Bus_West.0" depart="8.00" departLane="J2E3_0" departPos="12.10" departSpeed="0.00" departDelay="8.00" arrival="79.00" arrivalLane="E1C1_0" arrivalPos="160.00" arrivalSpeed="13.89" duration="71.00" routeLength="390.04" waitingTime="21.00" waitingCount="1" stopTime="0.00" timeLoss="42.23" rerouteNo="0" devices="tripinfo_Bus_West.0 emissions_Bus_West.0 battery_Bus_West.0" vType="ElectricBus" speedFactor="1.00" vaporized="">
        <emissions CO_abs="0" CO2_abs="0" HC_abs="0" PMx_abs="0" NOx_abs="0" fuel_abs="0" electricity_abs="843.341314"/>
    </tripinfo>
    <tripinfo id="Phase3THR_flow.4" depart="36.00" departLane="C1E1_0" departPos="4.10" departSpeed="0.00" departDelay="0.62" arrival="80.00" arrivalLane="E3J2_1" arrivalPos="160.00" arrivalSpeed="13.03" duration="44.00" routeLength="398.04" waitingTime="4.00" waitingCount="1" stopTime="0.00" timeLoss="13.53" rerouteNo="1" devices="tripinfo_Phase3THR_flow.4 routing_Phase3THR_flow.4 emissions_Phase3THR_flow.4 battery_Phase3THR_flow.4" vType="Auto" speedFactor="0.96" vaporized="">
        <emissions CO_abs="2418.157776" CO2_abs="134572.160596" HC_abs="14.182658" PMx_abs="2.501676" NOx_abs="55.922680" fuel_abs="57.846913" electricity_abs="0"/>
    </tripinfo>
    <tripinfo id="Bus_East.0" depart="9.00" departLane="C1E1_0" departPos="12.10" departSpeed="0.00" departDelay="9.00" arrival="81.00" arrivalLane="E3J2_0" arrivalPos="160.00" arrivalSpeed="13.89" duration="72.00" routeLength="390.04" waitingTime="22.00" waitingCount="1" stopTime="0.00" timeLoss="43.58" rerouteNo="0" devices="tripinfo_Bus_East.0 emissions_Bus_East.0 battery_Bus_East.0" vType="ElectricBus" speedFactor="1.00" vaporized="">
        <emissions CO_abs="0" CO2_abs="0" HC_abs="0" PMx_abs="0" NOx_abs="0" fuel_abs="0" electricity_abs="851.792656"/>
    </tripinfo>
    <tripinfo id="Phase7THR_flow.4" depart="26.00" departLane="J2E3_0" departPos="4.10" departSpeed="0.00" departDelay="0.91" arrival="82.00" arrivalLane="E1C1_0" arrivalPos="160.00" arrivalSpeed="12.39" duration="56.00" routeLength="398.04" waitingTime="12.00" waitingCount="1" stopTime="0.00" timeLoss="24.18" rerouteNo="1" devices="tripinfo_Phase7THR_flow.4 routing_Phase7THR_flow.4 emissions_Phase7THR_flow.4 battery_Phase7THR_flow.4" vType="Auto" speedFactor="0.92" vaporized="">
        <emissions CO_abs="3360.438206" CO2_abs="132249.150697" HC_abs="18.406308" PMx_abs="2.545348" NOx_abs="55.763162" fuel_abs="56.849033" electricity_abs="0"/>
    </tripinfo>
    <tripinfo id="Phase3THR_flow.5" depart="45.00" departLane="C1E1_0" departPos="4.10" departSpeed="0.00" departDelay="0.78" arrival="82.00" arrivalLane="E3J2_1" arrivalPos="160.00" arrivalSpeed="13.21" duration="37.00" routeLength="398.04" waitingTime="0.00" waitingCount="0" stopTime="0.00" timeLoss="7.62" rerouteNo="1" devices="tripinfo_Phase3THR_flow.5 routing_Phase3THR_flow.5 emissions_Phase3THR_flow.5 battery_Phase3THR_flow.5" vType="Auto" speedFactor="1.00" vaporized="">
        <emissions CO_abs="1768.136302" CO2_abs="119197.992775" HC_abs="10.853599" PMx_abs="2.078947" NOx_abs="48.395132" fuel_abs="51.238121" electricity_abs="0"/>
    </tripinfo>
    <tripinfo id="Phase7THR_flow.3" depart="19.00" departLane="J2E3_0" departPos="4.10" departSpeed="0.00" departDelay="0.18" arrival="83.00" arrivalLane="E1C1_1" arrivalPos="160.00" arrivalSpeed="10.54" duration="64.00" routeLength="398.04" waitingTime="16.00" waitingCount="1" stopTime="0.00" timeLoss="28.15" rerouteNo="1" devices="tripinfo_Phase7THR_flow.3 routing_Phase7THR_flow.3 emissions_Phase7THR_flow.3 battery_Phase7THR_flow.3" vType="Auto" speedFactor="0.82" vaporized="">
        <emissions CO_abs="4171.590023" CO2_abs="146123.925246" HC_abs="22.410563" PMx_abs="2.811198" NOx_abs="61.657087" fuel_abs="62.813676" electricity_abs="0"/>
    </tripinfo>
    <tripinfo id="Phase7THR_flow.5" depart="32.00" departLane="J2E3_0" departPos="4.10" departSpeed="0.00" departDelay="0.64" arrival="84.00" arrivalLane="E1C1_1" arrivalPos="160.00" arrivalSpeed="12.10" duration="52.00" routeLength="398.04" waitingTime="7.00" waitingCount="1" stopTime="0.00" timeLoss="20.23" rerouteNo="1" devices="tripinfo_Phase7THR_flow.5 routing_Phase7THR_flow.5 emissions_Phase7THR_flow.5 battery_Phase7THR_flow.5" vType="Auto" speedFactor="0.91" vaporized="">
        <emissions CO_abs="3316.094702" CO2_abs="147159.733039" HC_abs="18.567060" PMx_abs="2.832152" NOx_abs="62.067058" fuel_abs="63.258179" electricity_abs="0"/>
    </tripinfo>
    <tripinfo id="Phase7THR_flow.6" depart="38.00" departLane="J2E3_0" departPos="4.10" departSpeed="0.00" departDelay="0.37" arrival="84.00" arrivalLane="E1C1_0" arrivalPos="160.00" arrivalSpeed="11.48" duration="46.00" routeLength="398.04" waitingTime="1.00" waitingCount="1" stopTime="0.00" timeLoss="13.92" rerouteNo="1" devices="tripinfo_Phase7THR_flow.6 routing_Phase7THR_flow.6 emissions_Phase7THR_flow.6 battery_Phase7THR_flow.6" vType="Auto" speedFactor="0.91" vaporized="">
        <emissions CO_abs="2380.922333" CO2_abs="124803.770870" HC_abs="13.754415" PMx_abs="2.179481" NOx_abs="51.061533" fuel_abs="53.648216" electricity_abs="0"/>
    </tripinfo>
    <tripinfo id="Phase3THR_flow.6" depart="54.00" departLane="C1E1_0" departPos="4.10" departSpeed="0.00" departDelay="0.93" arrival="84.00" arrivalLane="E3J2_0" arrivalPos="160.00" arrivalSpeed="14.59" duration="30.00" routeLength="398.04" waitingTime="0.00" waitingCount="0" stopTime="0.00" timeLoss="4.19" rerouteNo="1" devices="tripinfo_Phase3THR_flow.6 routing_Phase3THR_flow.6 emissions_Phase3THR_flow.6 battery_Phase3THR_flow.6" vType="Auto" speedFactor="1.12" vaporized="">
        <emissions CO_abs="1191.771024" CO2_abs="90734.913798" HC_abs="7.537980" PMx_abs="1.561653" NOx_abs="36.266801" fuel_abs="39.003000" electricity_abs="0"/>
    </tripinfo>
    <tripinfo id="Phase7THR_flow.7" depart="44.00" departLane="J2E3_0" departPos="4.10" departSpeed="0.00" departDelay="0.10" arrival="85.00" arrivalLane="E1C1_0" arrivalPos="160.00" arrivalSpeed="12.78" duration="41.00" routeLength="398.04" waitingTime="0.00" waitingCount="0" stopTime="0.00" timeLoss="10.63" rerouteNo="1" devices="tripinfo_Phase7THR_flow.7 routing_Phase7THR_flow.7 emissions_Phase7THR_flow.7 battery_Phase7THR_flow.7" vType="Auto" speedFactor="0.95" vaporized="">
        <emissions CO_abs="2073.495455" CO2_abs="118945.092883" HC_abs="12.237484" PMx_abs="2.150114" NOx_abs="49.161204" fuel_abs="51.129520" electricity_abs="0"/>
    </tripinfo>
    <tripinfo id="Phase7THR_flow.8" depart="51.00" departLane="J2E3_0" departPos="4.10" departSpeed="0.00" departDelay="0.82" arrival="86.00" arrivalLane="E1C1_1" arrivalPos="160.00" arrivalSpeed="12.57" duration="35.00" routeLength="398.04" waitingTime="0.00" waitingCount="0" stopTime="0.00" timeLoss="6.07" rerouteNo="1" devices="tripinfo_Phase7THR_flow.8 routing_Phase7THR_flow.8 emissions_Phase7THR_flow.8 battery_Phase7THR_flow.8" vType="Auto" speedFactor="1.01" vaporized="">
        <emissions CO_abs="1640.826332" CO2_abs="113025.178512" HC_abs="10.139729" PMx_abs="2.023867" NOx_abs="46.247047" fuel_abs="48.584579" electricity_abs="0"/>
    </tripinfo>
    <tripinfo id="Phase3Right_flow.1" depart="57.00" departLane="C1E1_0" departPos="4.10" departSpeed="0.00" departDelay="1.62" arrival="88.00" arrivalLane="E4C4_0" arrivalPos="160.00" arrivalSpeed="14.68" duration="31.00" routeLength="379.87" waitingTime="0.00" waitingCount="0" stopTime="0.00" timeLoss="5.17" rerouteNo="1" devices="tripinfo_Phase3Right_flow.1 routing_Phase3Right_flow.1 emissions_Phase3Right_flow.1 battery_Phase3Right_flow.1" vType="Auto" speedFactor="1.11" vaporized="">
        <emissions CO_abs="1850.124842" CO2_abs="118682.966775" HC_abs="11.221286" PMx_abs="2.307072" NOx_abs="49.773842" fuel_abs="51.016435" electricity_abs="0"/>
    </tripinfo>
    <tripinfo id="Phase7THR_flow.9" depart="57.00" departLane="J2E3_0" departPos="4.10" departSpeed="0.00" departDelay="0.55" arrival="94.00" arrivalLane="E1C1_0" arrivalPos="160.00" arrivalSpeed="11.88" duration="37.00" routeLength="398.04" waitingTime="0.00" waitingCount="0" stopTime="0.00" timeLoss="4.89" rerouteNo="1" devices="tripinfo_Phase7THR_flow.9 routing_Phase7THR_flow.9 emissions_Phase7THR_flow.9 battery_Phase7THR_flow.9" vType="Auto" speedFactor="0.92" vaporized="">
        <emissions CO_abs="1458.767137" CO2_abs="98828.840307" HC_abs="8.944690" PMx_abs="1.609727" NOx_abs="39.358609" fuel_abs="42.482464" electricity_abs="0"/>
    </tripinfo>
    <tripinfo id="Phase7THR_flow.10" depart="63.00" departLane="J2E3_0" departPos="4.10" departSpeed="0.00" departDelay="0.28" arrival="95.00" arrivalLane="E1C1_0" arrivalPos="160.00" arrivalSpeed="13.98" duration="32.00" routeLength="398.04" waitingTime="0.00" waitingCount="0" stopTime="0.00" timeLoss="5.94" rerouteNo="1" devices="tripinfo_Phase7THR_flow.10 routing_Phase7THR_flow.10 emissions_Phase7THR_flow.10 battery_Phase7THR_flow.10" vType="Auto" speedFactor="1.11" vaporized="">
        <emissions CO_abs="1636.735848" CO2_abs="114039.198244" HC_abs="10.136458" PMx_abs="2.087632" NOx_abs="46.722000" fuel_abs="49.020397" electricity_abs="0"/>
    </tripinfo>
    <tripinfo id="Phase3THR_flow.7" depart="62.00" departLane="C1E1_0" departPos="4.10" departSpeed="0.00" departDelay="0.09" arrival="97.00" arrivalLane="E3J2_0" arrivalPos="160.00" arrivalSpeed="13.02" duration="35.00" routeLength="398.04" waitingTime="0.00" waitingCount="0" stopTime="0.00" timeLoss="4.26" rerouteNo="1" devices="tripinfo_Phase3THR_flow.7 routing_Phase3THR_flow.7 emissions_Phase3THR_flow.7 battery_Phase3THR_flow.7" vType="Auto" speedFactor="0.94" vaporized="">
        <emissions CO_abs="1341.081137" CO2_abs="103730.668762" HC_abs="8.514797" PMx_abs="1.606597" NOx_abs="40.642432" fuel_abs="44.589537" electricity_abs="0"/>
    </tripinfo>
    <tripinfo id="Phase7THR_flow.11" depart="69.00" departLane="J2E3_0" departPos="4.10" departSpeed="0.00" departDelay="0.01" arrival="102.00" arrivalLane="E1C1_0" arrivalPos="160.00" arrivalSpeed="13.60" duration="33.00" routeLength="398.04" waitingTime="0.00" waitingCount="0" stopTime="0.00" timeLoss="4.39" rerouteNo="1" devices="tripinfo_Phase7THR_flow.11 routing_Phase7THR_flow.11 emissions_Phase7THR_flow.11 battery_Phase7THR_flow.11" vType="Auto" speedFactor="1.03" vaporized="">
        <emissions CO_abs="1281.250127" CO2_abs="89500.471347" HC_abs="7.920787" PMx_abs="1.552008" NOx_abs="36.143368" fuel_abs="38.472411" electricity_abs="0"/>
    </tripinfo>
    <tripinfo id="Phase7THR_flow.12" depart="76.00" departLane="J2E3_0" departPos="4.10" departSpeed="0.00" departDelay="0.74" arrival="109.00" arrivalLane="E1C1_0" arrivalPos="160.00" arrivalSpeed="13.75" duration="33.00" routeLength="398.04" waitingTime="0.00" waitingCount="0" stopTime="0.00" timeLoss="4.01" rerouteNo="1" devices="tripinfo_Phase7THR_flow.12 routing_Phase7THR_flow.12 emissions_Phase7THR_flow.12 battery_Phase7THR_flow.12" vType="Auto" speedFactor="1.00" vaporized="">
        <emissions CO_abs="1271.105190" CO2_abs="93424.018679" HC_abs="7.969966" PMx_abs="1.593246" NOx_abs="37.547244" fuel_abs="40.158962" electricity_abs="0"/>
    </tripinfo>
    <tripinfo id="Phase3THR_flow.8" depart="71.00" departLane="C1E1_0" departPos="4.10" departSpeed="0.00" departDelay="0.24" arrival="112.00" arrivalLane="E3J2_0" arrivalPos="160.00" arrivalSpeed="10.53" duration="41.00" routeLength="398.04" waitingTime="0.00" waitingCount="0" stopTime="0.00" timeLoss="4.37" rerouteNo="1" devices="tripinfo_Phase3THR_flow.8 routing_Phase3THR_flow.8 emissions_Phase3THR_flow.8 battery_Phase3THR_flow.8" vType="Auto" speedFactor="0.80" vaporized="">
        <emissions CO_abs="1497.754124" CO2_abs="95759.003594" HC_abs="9.040359" PMx_abs="1.545619" NOx_abs="38.378910" fuel_abs="41.162926" electricity_abs="0"/>
    </tripinfo>
    <tripinfo id="Phase3THR_flow.9" depart="80.00" departLane="C1E1_0" departPos="4.10" departSpeed="0.00" departDelay="0.40" arrival="113.00" arrivalLane="E3J2_0" arrivalPos="160.00" arrivalSpeed="13.10" duration="33.00" routeLength="398.04" waitingTime="0.00" waitingCount="0" stopTime="0.00" timeLoss="4.26" rerouteNo="1" devices="tripinfo_Phase3THR_flow.9 routing_Phase3THR_flow.9 emissions_Phase3THR_flow.9 battery_Phase3THR_flow.9" vType="Auto" speedFactor="1.00" vaporized="">
        <emissions CO_abs="1419.617095" CO2_abs="103519.458528" HC_abs="8.897508" PMx_abs="1.771617" NOx_abs="41.645891" fuel_abs="44.498559" electricity_abs="0"/>
    </tripinfo>
    <tripinfo id="Phase4_flow.0" depart="0.00" departLane="J2E3_0" departPos="4.10" departSpeed="0.00" departDelay="0.00" arrival="121.00" arrivalLane="E4C4_0" arrivalPos="160.00" arrivalSpeed="13.38" duration="121.00" routeLength="400.69" waitingTime="84.00" waitingCount="1" stopTime="0.00" timeLoss="91.92" rerouteNo="1" devices="tripinfo_Phase4_flow.0 routing_Phase4_flow.0 emissions_Phase4_flow.0 battery_Phase4_flow.0" vType="Auto" speedFactor="1.01" vaporized="">
        <emissions CO_abs="15105.190532" CO2_abs="335129.082520" HC_abs="76.674857" PMx_abs="7.590761" NOx_abs="148.166351" fuel_abs="144.063584" electricity_abs="0"/>
    </tripinfo>
    <tripinfo id="Phase8_flow.0" depart="5.00" departLane="C1E1_0" departPos="4.10" departSpeed="0.00" departDelay="5.00" arrival="121.00" arrivalLane="E2N1_0" arrivalPos="160.00" arrivalSpeed="13.60" duration="116.00" routeLength="400.69" waitingTime="79.00" waitingCount="1" stopTime="0.00" timeLoss="87.36" rerouteNo="1" devices="tripinfo_Phase8_flow.0 routing_Phase8_flow.0 emissions_Phase8_flow.0 battery_Phase8_flow.0" vType="Auto" speedFactor="1.05" vaporized="">
        <emissions CO_abs="14384.255514" CO2_abs="328587.561454" HC_abs="73.242376" PMx_abs="7.391353" NOx_abs="144.862317" fuel_abs="141.251270" electricity_abs="0"/>
    </tripinfo>
    <tripinfo id="Phase4_flow.1" depart="55.00" departLane="J2E3_0" departPos="4.10" departSpeed="0.00" departDelay="0.46" arrival="123.00" arrivalLane="E4C4_0" arrivalPos="160.00" arrivalSpeed="12.88" duration="68.00" routeLength="400.69" waitingTime="29.00" waitingCount="1" stopTime="0.00" timeLoss="38.92" rerouteNo="1" devices="tripinfo_Phase4_flow.1 routing_Phase4_flow.1 emissions_Phase4_flow.1 battery_Phase4_flow.1" vType="Auto" speedFactor="1.01" vaporized="">
        <emissions CO_abs="6197.395884" CO2_abs="192140.622188" HC_abs="32.739292" PMx_abs="3.963176" NOx_abs="82.330563" fuel_abs="82.594929" electricity_abs="0"/>
    </tripinfo>
    <tripinfo id="Phase1THR_flow.2" depart="27.00" departLane="N1E2_0" departPos="4.10" departSpeed="0.00" departDelay="0.53" arrival="138.00" arrivalLane="E4C4_0" arrivalPos="160.00" arrivalSpeed="12.52" duration="111.00" routeLength="398.04" waitingTime="74.00" waitingCount="1" stopTime="0.00" timeLoss="81.73" rerouteNo="1" devices="tripinfo_Phase1THR_flow.2 routing_Phase1THR_flow.2 emissions_Phase1THR_flow.2 battery_Phase1THR_flow.2" vType="Auto" speedFactor="0.98" vaporized="">
        <emissions CO_abs="13298.736328" CO2_abs="298267.253819" HC_abs="67.570223" PMx_abs="6.701287" NOx_abs="131.588687" fuel_abs="128.217560" electricity_abs="0"/>
    </tripinfo>
    <tripinfo id="Phase5THR_flow.2" depart="28.00" departLane="C4E4_0" departPos="4.10" departSpeed="0.00" departDelay="0.83" arrival="139.00" arrivalLane="E2N1_0" arrivalPos="160.00" arrivalSpeed="13.00" duration="111.00" routeLength="398.04" waitingTime="72.00" waitingCount="1" stopTime="0.00" timeLoss="80.47" rerouteNo="1" devices="tripinfo_Phase5THR_flow.2 routing_Phase5THR_flow.2 emissions_Phase5THR_flow.2 battery_Phase5THR_flow.2" vType="Auto" speedFactor="0.95" vaporized="">
        <emissions CO_abs="13025.778531" CO2_abs="299279.296807" HC_abs="66.342742" PMx_abs="6.606457" NOx_abs="131.208164" fuel_abs="128.652527" electricity_abs="0"/>
    </tripinfo>
    <tripinfo id="Phase1THR_flow.3" depart="40.00" departLane="N1E2_0" departPos="4.10" departSpeed="0.00" departDelay="0.30" arrival="139.00" arrivalLane="E4C4_1" arrivalPos="160.00" arrivalSpeed="11.84" duration="99.00" routeLength="398.04" waitingTime="58.00" waitingCount="1" stopTime="0.00" timeLoss="68.33" rerouteNo="1" devices="tripinfo_Phase1THR_flow.3 routing_Phase1THR_flow.3 emissions_Phase1THR_flow.3 battery_Phase1THR_flow.3" vType="Auto" speedFactor="0.94" vaporized="">
        <emissions CO_abs="11026.807700" CO2_abs="270904.310729" HC_abs="56.580699" PMx_abs="5.902661" NOx_abs="118.377408" fuel_abs="116.454298" electricity_abs="0"/>
    </tripinfo>
    <tripinfo id="Phase1THR_flow.4" depart="53.00" departLane="N1E2_0" departPos="4.10" departSpeed="0.00" departDelay="0.06" arrival="140.00" arrivalLane="E4C4_0" arrivalPos="160.00" arrivalSpeed="14.03" duration="87.00" routeLength="398.04" waitingTime="50.00" waitingCount="1" stopTime="0.00" timeLoss="59.23" rerouteNo="1" devices="tripinfo_Phase1THR_flow.4 routing_Phase1THR_flow.4 emissions_Phase1THR_flow.4 battery_Phase1THR_flow.4" vType="Auto" speedFactor="1.06" vaporized="">
        <emissions CO_abs="9543.221619" CO2_abs="251079.438885" HC_abs="49.385580" PMx_abs="5.499556" NOx_abs="109.772867" fuel_abs="107.931522" electricity_abs="0"/>
    </tripinfo>