<?xml version="1.0" encoding="UTF-8"?>

<!-- generated on 2022-08-03 20:02:07 by Eclipse SUMO GUI Version 1.11.0
<configuration xmlns:xsi="http://www.w3.org/2001/XMLSchema-instance" xsi:noNamespaceSchemaLocation="http://sumo.dlr.de/xsd/sumoConfiguration.xsd">

    <input>
        <net-file value="bus_operation.net.xml"/>
        <route-files value="bus_operation_VC_0.5_flow.rou.xml"/>
        <additional-files value="bus_operation.add.xml"/>
    </input>

    <output>
        <emission-output value="result/bus_operation_emissionInfo.xml"/>
        <battery-output value="result/bus_operation_batteryOut.xml"/>
        <battery-output.precision value="4"/>
        <summary-output value="result/bus_operation_summary.xml"/>
        <tripinfo-output value="result/bus_operation_tripInfo.xml"/>
    </output>

    <time>
        <begin value="0"/>
        <end value="7200"/>
    </time>

    <battery>
        <device.battery.probability value="1"/>
    </battery>

    <traci_server>
        <remote-port value="51426"/>
    </traci_server>

    <random_number>
        <random value="true"/>
        <seed value="8"/>
    </random_number>

</configuration>
-->

<tripinfos xmlns:xsi="http://www.w3.org/2001/XMLSchema-instance" xsi:noNamespaceSchemaLocation="http://sumo.dlr.de/xsd/tripinfo_file.xsd">
    <tripinfo id="Phase1THR_flow.0" depart="0.00" departLane="N1E2_0" departPos="4.10" departSpeed="0.00" departDelay="0.00" arrival="31.00" arrivalLane="E4C4_0" arrivalPos="160.00" arrivalSpeed="14.56" duration="31.00" routeLength="398.04" waitingTime="0.00" waitingCount="0" stopTime="0.00" timeLoss="4.60" rerouteNo="1" devices="tripinfo_Phase1THR_flow.0 routing_Phase1THR_flow.0 emissions_Phase1THR_flow.0 battery_Phase1THR_flow.0" vType="Auto" speedFactor="1.11" vaporized="">
        <emissions CO_abs="1370.585877" CO2_abs="105652.250434" HC_abs="8.706200" PMx_abs="1.812423" NOx_abs="42.187072" fuel_abs="45.415312" electricity_abs="0"/>
    </tripinfo>
    <tripinfo id="Phase1Right_flow.0" depart="3.00" departLane="N1E2_0" departPos="4.10" departSpeed="0.00" departDelay="3.00" arrival="38.00" arrivalLane="E1C1_0" arrivalPos="160.00" arrivalSpeed="12.45" duration="35.00" routeLength="379.87" waitingTime="0.00" waitingCount="0" stopTime="0.00" timeLoss="5.94" rerouteNo="1" devices="tripinfo_Phase1Right_flow.0 routing_Phase1Right_flow.0 emissions_Phase1Right_flow.0 battery_Phase1Right_flow.0" vType="Auto" speedFactor="0.97" vaporized="">
        <emissions CO_abs="1651.715493" CO2_abs="112547.118171" HC_abs="10.169263" PMx_abs="1.978185" NOx_abs="45.881476" fuel_abs="48.379147" electricity_abs="0"/>
    </tripinfo>
    <tripinfo id="Phase5THR_flow.0" depart="3.00" departLane="C4E4_0" departPos="4.10" departSpeed="0.00" departDelay="3.00" arrival="39.00" arrivalLane="E2N1_0" arrivalPos="160.00" arrivalSpeed="11.66" duration="36.00" routeLength="398.04" waitingTime="0.00" waitingCount="0" stopTime="0.00" timeLoss="4.26" rerouteNo="1" devices="tripinfo_Phase5THR_flow.0 routing_Phase5THR_flow.0 emissions_Phase5THR_flow.0 battery_Phase5THR_flow.0" vType="Auto" speedFactor="0.91" vaporized="">
        <emissions CO_abs="1277.148799" CO2_abs="92038.404424" HC_abs="7.952752" PMx_abs="1.452784" NOx_abs="36.375166" fuel_abs="39.563534" electricity_abs="0"/>
    </tripinfo>
    <tripinfo id="Phase5Right_flow.0" depart="6.00" departLane="C4E4_0" departPos="4.10" departSpeed="0.00" departDelay="6.00" arrival="39.00" arrivalLane="E3J2_0" arrivalPos="160.00" arrivalSpeed="13.73" duration="33.00" routeLength="379.87" waitingTime="0.00" waitingCount="0" stopTime="0.00" timeLoss="6.13" rerouteNo="1" devices="tripinfo_Phase5Right_flow.0 routing_Phase5Right_flow.0 emissions_Phase5Right_flow.0 battery_Phase5Right_flow.0" vType="Auto" speedFactor="1.05" vaporized="">
        <emissions CO_abs="1951.637526" CO2_abs="126746.761079" HC_abs="11.885348" PMx_abs="2.322175" NOx_abs="52.222969" fuel_abs="54.482900" electricity_abs="0"/>
    </tripinfo>
    <tripinfo id="Phase1THR_flow.1" depart="14.00" departLane="N1E2_0" departPos="4.10" departSpeed="0.00" departDelay="0.77" arrival="44.00" arrivalLane="E4C4_0" arrivalPos="160.00" arrivalSpeed="15.22" duration="30.00" routeLength="398.04" waitingTime="0.00" waitingCount="0" stopTime="0.00" timeLoss="4.01" rerouteNo="1" devices="tripinfo_Phase1THR_flow.1 routing_Phase1THR_flow.1 emissions_Phase1THR_flow.1 battery_Phase1THR_flow.1" vType="Auto" speedFactor="1.11" vaporized="">
        <emissions CO_abs="1252.607629" CO2_abs="102201.617698" HC_abs="8.093173" PMx_abs="1.743918" NOx_abs="40.725969" fuel_abs="43.931990" electricity_abs="0"/>
    </tripinfo>
    <tripinfo id="Phase5THR_flow.1" depart="14.00" departLane="C4E4_0" departPos="4.10" departSpeed="0.00" departDelay="0.42" arrival="48.00" arrivalLane="E2N1_0" arrivalPos="160.00" arrivalSpeed="13.19" duration="34.00" routeLength="398.04" waitingTime="0.00" waitingCount="0" stopTime="0.00" timeLoss="4.10" rerouteNo="1" devices="tripinfo_Phase5THR_flow.1 routing_Phase5THR_flow.1 emissions_Phase5THR_flow.1 battery_Phase5THR_flow.1" vType="Auto" speedFactor="0.97" vaporized="">
        <emissions CO_abs="1204.018508" CO2_abs="97313.794405" HC_abs="7.745277" PMx_abs="1.510764" NOx_abs="38.070049" fuel_abs="41.831144" electricity_abs="0"/>
    </tripinfo>
    <tripinfo id="Phase2_flow.0" depart="0.00" departLane="C4E4_0" departPos="4.10" departSpeed="0.00" departDelay="0.00" arrival="58.00" arrivalLane="E1C1_0" arrivalPos="160.00" arrivalSpeed="13.16" duration="58.00" routeLength="400.69" waitingTime="19.00" waitingCount="1" stopTime="0.00" timeLoss="27.61" rerouteNo="1" devices="tripinfo_Phase2_flow.0 routing_Phase2_flow.0 emissions_Phase2_flow.0 battery_Phase2_flow.0" vType="Auto" speedFactor="0.97" vaporized="">
        <emissions CO_abs="4039.920276" CO2_abs="155332.872633" HC_abs="22.047200" PMx_abs="3.007547" NOx_abs="65.323268" fuel_abs="66.771956" electricity_abs="0"/>
    </tripinfo>
    <tripinfo id="Phase6_flow.0" depart="5.00" departLane="N1E2_0" departPos="4.10" departSpeed="0.00" departDelay="5.00" arrival="59.00" arrivalLane="E3J2_0" arrivalPos="160.00" arrivalSpeed="13.30" duration="54.00" routeLength="400.69" waitingTime="14.00" waitingCount="1" stopTime="0.00" timeLoss="23.07" rerouteNo="1" devices="tripinfo_Phase6_flow.0 routing_Phase6_flow.0 emissions_Phase6_flow.0 battery_Phase6_flow.0" vType="Auto" speedFactor="0.97" vaporized="">
        <emissions CO_abs="3383.155797" CO2_abs="149310.507562" HC_abs="18.914173" PMx_abs="2.801147" NOx_abs="62.134822" fuel_abs="64.182878" electricity_abs="0"/>
    </tripinfo>
    <tripinfo id="Phase3Right_flow.0" depart="3.00" departLane="C1E1_0" departPos="4.10" departSpeed="0.00" departDelay="3.00" arrival="70.00" arrivalLane="E4C4_0" arrivalPos="160.00" arrivalSpeed="15.88" duration="67.00" routeLength="379.87" waitingTime="30.00" waitingCount="2" stopTime="0.00" timeLoss="43.23" rerouteNo="1" devices="tripinfo_Phase3Right_flow.0 routing_Phase3Right_flow.0 emissions_Phase3Right_flow.0 battery_Phase3Right_flow.0" vType="Auto" speedFactor="1.17" vaporized="">
        <emissions CO_abs="6103.773944" CO2_abs="206129.738697" HC_abs="32.624731" PMx_abs="4.333301" NOx_abs="88.625248" fuel_abs="88.607812" electricity_abs="0"/>
    </tripinfo>
    <tripinfo id="Phase3THR_flow.0" depart="0.00" departLane="C1E1_0" departPos="4.10" departSpeed="0.00" departDelay="0.00" arrival="73.00" arrivalLane="E3J2_0" arrivalPos="160.00" arrivalSpeed="13.34" duration="73.00" routeLength="398.04" waitingTime="35.00" waitingCount="1" stopTime="0.00" timeLoss="45.23" rerouteNo="1" devices="tripinfo_Phase3THR_flow.0 routing_Phase3THR_flow.0 emissions_Phase3THR_flow.0 battery_Phase3THR_flow.0" vType="Auto" speedFactor="1.04" vaporized="">
        <emissions CO_abs="7158.436553" CO2_abs="203785.243855" HC_abs="37.388739" PMx_abs="4.270190" NOx_abs="87.712656" fuel_abs="87.600972" electricity_abs="0"/>
    </tripinfo>
    <tripinfo id="Phase7THR_flow.1" depart="14.00" departLane="J2E3_0" departPos="4.10" departSpeed="0.00" departDelay="7.73" arrival="73.00" arrivalLane="E1C1_0" arrivalPos="160.00" arrivalSpeed="12.83" duration="59.00" routeLength="398.04" waitingTime="21.00" waitingCount="1" stopTime="0.00" timeLoss="30.48" rerouteNo="1" devices="tripinfo_Phase7THR_flow.1 routing_Phase7THR_flow.1 emissions_Phase7THR_flow.1 battery_Phase7THR_flow.1" vType="Auto" speedFactor="1.01" vaporized="">
        <emissions CO_abs="4038.398464" CO2_abs="158600.601306" HC_abs="22.122938" PMx_abs="3.078045" NOx_abs="66.624231" fuel_abs="68.176562" electricity_abs="0"/>
    </tripinfo>
    <tripinfo id="Phase7Right_flow.0" depart="6.00" departLane="J2E3_0" departPos="4.10" departSpeed="0.00" departDelay="6.00" arrival="74.00" arrivalLane="E2N1_0" arrivalPos="160.00" arrivalSpeed="13.61" duration="68.00" routeLength="379.87" waitingTime="30.00" waitingCount="1" stopTime="0.00" timeLoss="39.76" rerouteNo="1" devices="tripinfo_Phase7Right_flow.0 routing_Phase7Right_flow.0 emissions_Phase7Right_flow.0 battery_Phase7Right_flow.0" vType="Auto" speedFactor="0.99" vaporized="">
        <emissions CO_abs="5877.304733" CO2_abs="182482.854024" HC_abs="31.059708" PMx_abs="3.779114" NOx_abs="78.341042" fuel_abs="78.443337" electricity_abs="0"/>
    </tripinfo>
    <tripinfo id="Phase3THR_flow.1" depart="13.00" departLane="C1E1_0" departPos="4.10" departSpeed="0.00" departDelay="4.16" arrival="75.00" arrivalLane="E3J2_1" arrivalPos="160.00" arrivalSpeed="13.54" duration="62.00" routeLength="398.04" waitingTime="24.00" waitingCount="1" stopTime="0.00" timeLoss="33.25" rerouteNo="1" devices="tripinfo_Phase3THR_flow.1 routing_Phase3THR_flow.1 emissions_Phase3THR_flow.1 battery_Phase3THR_flow.1" vType="Auto" speedFactor="1.00" vaporized="">
        <emissions CO_abs="5046.901939" CO2_abs="178130.069942" HC_abs="27.155284" PMx_abs="3.487396" NOx_abs="74.939430" fuel_abs="76.571959" electricity_abs="0"/>
    </tripinfo>
    <tripinfo id="Phase7THR_flow.0" depart="3.00" departLane="J2E3_0" departPos="4.10" departSpeed="0.00" departDelay="3.00" arrival="76.00" arrivalLane="E1C1_0" arrivalPos="160.00" arrivalSpeed="11.93" duration="73.00" routeLength="398.04" waitingTime="30.00" waitingCount="1" stopTime="0.00" timeLoss="38.92" rerouteNo="1" devices="tripinfo_Phase7THR_flow.0 routing_Phase7THR_flow.0 emissions_Phase7THR_flow.0 battery_Phase7THR_flow.0" vType="Auto" speedFactor="0.86" vaporized="">
        <emissions CO_abs="6000.451085" CO2_abs="178373.057819" HC_abs="31.490258" PMx_abs="3.546077" NOx_abs="75.742832" fuel_abs="76.677104" electricity_abs="0"/>
    </tripinfo>
    <tripinfo id="Phase7THR_flow.2" depart="17.00" departLane="J2E3_0" departPos="4.10" departSpeed="0.00" departDelay="4.46" arrival="76.00" arrivalLane="E1C1_1" arrivalPos="160.00" arrivalSpeed="11.81" duration="59.00" routeLength="398.04" waitingTime="20.00" waitingCount="1" stopTime="0.00" timeLoss="27.88" rerouteNo="1" devices="tripinfo_Phase7THR_flow.2 routing_Phase7THR_flow.2 emissions_Phase7THR_flow.2 battery_Phase7THR_flow.2" vType="Auto" speedFactor="0.92" vaporized="">
        <emissions CO_abs="3928.758670" CO2_abs="150399.956066" HC_abs="21.409904" PMx_abs="2.837327" NOx_abs="62.780912" fuel_abs="64.651602" electricity_abs="0"/>
    </tripinfo>
    <tripinfo id="Phase3THR_flow.2" depart="18.00" departLane="C1E1_0" departPos="4.10" departSpeed="0.00" departDelay="0.31" arrival="77.00" arrivalLane="E3J2_1" arrivalPos="160.00" arrivalSpeed="13.72" duration="59.00" routeLength="398.04" waitingTime="20.00" waitingCount="1" stopTime="0.00" timeLoss="31.72" rerouteNo="1" devices="tripinfo_Phase3THR_flow.2 routing_Phase3THR_flow.2 emissions_Phase3THR_flow.2 battery_Phase3THR_flow.2" vType="Auto" speedFactor="1.08" vaporized="">
        <emissions CO_abs="5063.029171" CO2_abs="189127.712814" HC_abs="27.525459" PMx_abs="3.855109" NOx_abs="80.707221" fuel_abs="81.298964" electricity_abs="0"/>
    </tripinfo>
    <tripinfo id="Phase7THR_flow.3" depart="19.00" departLane="J2E3_0" departPos="4.10" departSpeed="0.00" departDelay="0.18" arrival="78.00" arrivalLane="E1C1_1" arrivalPos="160.00" arrivalSpeed="16.29" duration="59.00" routeLength="398.04" waitingTime="18.00" waitingCount="1" stopTime="0.00" timeLoss="34.03" rerouteNo="1" devices="tripinfo_Phase7THR_flow.3 routing_Phase7THR_flow.3 emissions_Phase7THR_flow.3 battery_Phase7THR_flow.3" vType="Auto" speedFactor="1.18" vaporized="">
        <emissions CO_abs="4873.217207" CO2_abs="197258.774001" HC_abs="26.876312" PMx_abs="4.033266" NOx_abs="84.337565" fuel_abs="84.793831" electricity_abs="0"/>
    </tripinfo>
    <tripinfo id="Bus_East.0" depart="9.00" departLane="C1E1_0" departPos="12.10" departSpeed="0.00" departDelay="9.00" arrival="79.00" arrivalLane="E3J2_0" arrivalPos="160.00" arrivalSpeed="13.89" duration="70.00" routeLength="390.04" waitingTime="20.00" waitingCount="1" stopTime="0.00" timeLoss="41.43" rerouteNo="0" devices="tripinfo_Bus_East.0 emissions_Bus_East.0 battery_Bus_East.0" vType="ElectricBus" speedFactor="1.00" vaporized="">
        <emissions CO_abs="0" CO2_abs="0" HC_abs="0" PMx_abs="0" NOx_abs="0" fuel_abs="0" electricity_abs="853.691054"/>
    </tripinfo>
    <tripinfo id="Phase7THR_flow.4" depart="26.00" departLane="J2E3_0" departPos="4.10" departSpeed="0.00" departDelay="0.91" arrival="80.00" arrivalLane="E1C1_1" arrivalPos="160.00" arrivalSpeed="13.95" duration="54.00" routeLength="398.04" waitingTime="13.00" waitingCount="1" stopTime="0.00" timeLoss="25.38" rerouteNo="1" devices="tripinfo_Phase7THR_flow.4 routing_Phase7THR_flow.4 emissions_Phase7THR_flow.4 battery_Phase7THR_flow.4" vType="Auto" speedFactor="1.04" vaporized="">
        <emissions CO_abs="3785.697857" CO2_abs="176766.555677" HC_abs="21.424464" PMx_abs="3.472285" NOx_abs="74.714095" fuel_abs="75.984741" electricity_abs="0"/>
    </tripinfo>
    <tripinfo id="Bus_West.0" depart="10.00" departLane="J2E3_0" departPos="12.10" departSpeed="0.00" departDelay="10.00" arrival="81.00" arrivalLane="E1C1_0" arrivalPos="160.00" arrivalSpeed="13.89" duration="71.00" routeLength="390.04" waitingTime="21.00" waitingCount="1" stopTime="0.00" timeLoss="42.51" rerouteNo="0" devices="tripinfo_Bus_West.0 emissions_Bus_West.0 battery_Bus_West.0" vType="ElectricBus" speedFactor="1.00" vaporized="">
        <emissions CO_abs="0" CO2_abs="0" HC_abs="0" PMx_abs="0" NOx_abs="0" fuel_abs="0" electricity_abs="849.306564"/>
    </tripinfo>
    <tripinfo id="Phase7THR_flow.5" depart="32.00" departLane="J2E3_0" departPos="4.10" departSpeed="0.00" departDelay="0.64" arrival="82.00" arrivalLane="E1C1_1" arrivalPos="160.00" arrivalSpeed="12.34" duration="50.00" routeLength="398.04" waitingTime="8.00" waitingCount="1" stopTime="0.00" timeLoss="17.63" rerouteNo="1" devices="tripinfo_Phase7THR_flow.5 routing_Phase7THR_flow.5 emissions_Phase7THR_flow.5 battery_Phase7THR_flow.5" vType="Auto" speedFactor="0.90" vaporized="">
        <emissions CO_abs="2829.555665" CO2_abs="132459.080621" HC_abs="15.989934" PMx_abs="2.432708" NOx_abs="54.953548" fuel_abs="56.939009" electricity_abs="0"/>
    </tripinfo>
    <tripinfo id="Phase3THR_flow.4" depart="36.00" departLane="C1E1_0" departPos="4.10" departSpeed="0.00" departDelay="0.62" arrival="82.00" arrivalLane="E3J2_0" arrivalPos="160.00" arrivalSpeed="13.19" duration="46.00" routeLength="398.04" waitingTime="4.00" waitingCount="1" stopTime="0.00" timeLoss="16.08" rerouteNo="1" devices="tripinfo_Phase3THR_flow.4 routing_Phase3THR_flow.4 emissions_Phase3THR_flow.4 battery_Phase3THR_flow.4" vType="Auto" speedFactor="0.98" vaporized="">
        <emissions CO_abs="2376.822478" CO2_abs="132855.276877" HC_abs="13.934740" PMx_abs="2.344877" NOx_abs="54.418835" fuel_abs="57.109078" electricity_abs="0"/>
    </tripinfo>
    <tripinfo id="Phase3THR_flow.3" depart="27.00" departLane="C1E1_0" departPos="4.10" departSpeed="0.00" departDelay="0.47" arrival="83.00" arrivalLane="E3J2_1" arrivalPos="160.00" arrivalSpeed="10.29" duration="56.00" routeLength="398.04" waitingTime="11.00" waitingCount="2" stopTime="0.00" timeLoss="20.29" rerouteNo="1" devices="tripinfo_Phase3THR_flow.3 routing_Phase3THR_flow.3 emissions_Phase3THR_flow.3 battery_Phase3THR_flow.3" vType="Auto" speedFactor="0.82" vaporized="">
        <emissions CO_abs="3134.738576" CO2_abs="132385.869771" HC_abs="17.360971" PMx_abs="2.406291" NOx_abs="54.938229" fuel_abs="56.907821" electricity_abs="0"/>
    </tripinfo>
    <tripinfo id="Phase7THR_flow.6" depart="38.00" departLane="J2E3_0" departPos="4.10" departSpeed="0.00" departDelay="0.37" arrival="83.00" arrivalLane="E1C1_0" arrivalPos="160.00" arrivalSpeed="14.80" duration="45.00" routeLength="398.04" waitingTime="4.00" waitingCount="1" stopTime="0.00" timeLoss="18.01" rerouteNo="1" devices="tripinfo_Phase7THR_flow.6 routing_Phase7THR_flow.6 emissions_Phase7THR_flow.6 battery_Phase7THR_flow.6" vType="Auto" speedFactor="1.07" vaporized="">
        <emissions CO_abs="2562.105575" CO2_abs="143002.467850" HC_abs="15.004410" PMx_abs="2.641854" NOx_abs="59.288393" fuel_abs="61.470764" electricity_abs="0"/>
    </tripinfo>
    <tripinfo id="Phase7THR_flow.7" depart="44.00" departLane="J2E3_0" departPos="4.10" departSpeed="0.00" departDelay="0.10" arrival="84.00" arrivalLane="E1C1_1" arrivalPos="160.00" arrivalSpeed="13.34" duration="40.00" routeLength="398.04" waitingTime="0.00" waitingCount="0" stopTime="0.00" timeLoss="11.43" rerouteNo="1" devices="tripinfo_Phase7THR_flow.7 routing_Phase7THR_flow.7 emissions_Phase7THR_flow.7 battery_Phase7THR_flow.7" vType="Auto" speedFactor="1.03" vaporized="">
        <emissions CO_abs="2398.978821" CO2_abs="140454.900754" HC_abs="14.242320" PMx_abs="2.612967" NOx_abs="58.439816" fuel_abs="60.375540" electricity_abs="0"/>
    </tripinfo>
    <tripinfo id="Phase3THR_flow.5" depart="45.00" departLane="C1E1_0" departPos="4.10" departSpeed="0.00" departDelay="0.78" arrival="85.00" arrivalLane="E3J2_1" arrivalPos="160.00" arrivalSpeed="10.73" duration="40.00" routeLength="398.04" waitingTime="0.00" waitingCount="0" stopTime="0.00" timeLoss="6.15" rerouteNo="1" devices="tripinfo_Phase3THR_flow.5 routing_Phase3THR_flow.5 emissions_Phase3THR_flow.5 battery_Phase3THR_flow.5" vType="Auto" speedFactor="0.87" vaporized="">
        <emissions CO_abs="1689.785875" CO2_abs="106019.706387" HC_abs="10.170755" PMx_abs="1.810280" NOx_abs="43.136359" fuel_abs="45.573463" electricity_abs="0"/>
    </tripinfo>
    <tripinfo id="Phase7THR_flow.8" depart="51.00" departLane="J2E3_0" departPos="4.10" departSpeed="0.00" departDelay="0.82" arrival="86.00" arrivalLane="E1C1_0" arrivalPos="160.00" arrivalSpeed="12.46" duration="35.00" routeLength="398.04" waitingTime="0.00" waitingCount="0" stopTime="0.00" timeLoss="3.57" rerouteNo="1" devices="tripinfo_Phase7THR_flow.8 routing_Phase7THR_flow.8 emissions_Phase7THR_flow.8 battery_Phase7THR_flow.8" vType="Auto" speedFactor="0.92" vaporized="">
        <emissions CO_abs="1244.203822" CO2_abs="95023.809986" HC_abs="7.876672" PMx_abs="1.506455" NOx_abs="37.526467" fuel_abs="40.846771" electricity_abs="0"/>
    </tripinfo>
    <tripinfo id="Phase7THR_flow.9" depart="57.00" departLane="J2E3_0" departPos="4.10" departSpeed="0.00" departDelay="0.55" arrival="88.00" arrivalLane="E1C1_0" arrivalPos="160.00" arrivalSpeed="16.19" duration="31.00" routeLength="398.04" waitingTime="0.00" waitingCount="0" stopTime="0.00" timeLoss="5.60" rerouteNo="1" devices="tripinfo_Phase7THR_flow.9 routing_Phase7THR_flow.9 emissions_Phase7THR_flow.9 battery_Phase7THR_flow.9" vType="Auto" speedFactor="1.17" vaporized="">
        <emissions CO_abs="1559.417070" CO2_abs="115918.861369" HC_abs="9.714241" PMx_abs="2.075516" NOx_abs="46.771528" fuel_abs="49.828384" electricity_abs="0"/>
    </tripinfo>
    <tripinfo id="Phase3THR_flow.6" depart="54.00" departLane="C1E1_0" departPos="4.10" departSpeed="0.00" departDelay="0.93" arrival="89.00" arrivalLane="E3J2_0" arrivalPos="160.00" arrivalSpeed="11.69" duration="35.00" routeLength="398.04" waitingTime="0.00" waitingCount="0" stopTime="0.00" timeLoss="3.87" rerouteNo="1" devices="tripinfo_Phase3THR_flow.6 routing_Phase3THR_flow.6 emissions_Phase3THR_flow.6 battery_Phase3THR_flow.6" vType="Auto" speedFactor="0.94" vaporized="">
        <emissions CO_abs="1271.004465" CO2_abs="95006.218914" HC_abs="8.006302" PMx_abs="1.551029" NOx_abs="37.797684" fuel_abs="40.839165" electricity_abs="0"/>
    </tripinfo>
    <tripinfo id="Phase3Right_flow.1" depart="56.00" departLane="C1E1_0" departPos="4.10" departSpeed="0.00" departDelay="0.62" arrival="93.00" arrivalLane="E4C4_0" arrivalPos="160.00" arrivalSpeed="12.47" duration="37.00" routeLength="379.87" waitingTime="0.00" waitingCount="0" stopTime="0.00" timeLoss="6.24" rerouteNo="1" devices="tripinfo_Phase3Right_flow.1 routing_Phase3Right_flow.1 emissions_Phase3Right_flow.1 battery_Phase3Right_flow.1" vType="Auto" speedFactor="0.92" vaporized="">
        <emissions CO_abs="1841.668284" CO2_abs="111800.285747" HC_abs="11.004654" PMx_abs="1.942920" NOx_abs="45.537820" fuel_abs="48.058311" electricity_abs="0"/>
    </tripinfo>
    <tripinfo id="Phase3THR_flow.7" depart="62.00" departLane="C1E1_0" departPos="4.10" departSpeed="0.00" departDelay="0.09" arrival="98.00" arrivalLane="E3J2_0" arrivalPos="160.00" arrivalSpeed="11.39" duration="36.00" routeLength="398.04" waitingTime="0.00" waitingCount="0" stopTime="0.00" timeLoss="4.09" rerouteNo="1" devices="tripinfo_Phase3THR_flow.7 routing_Phase3THR_flow.7 emissions_Phase3THR_flow.7 battery_Phase3THR_flow.7" vType="Auto" speedFactor="0.92" vaporized="">
        <emissions CO_abs="1426.649661" CO2_abs="102289.979316" HC_abs="8.888375" PMx_abs="1.704994" NOx_abs="41.037508" fuel_abs="43.970130" electricity_abs="0"/>
    </tripinfo>
    <tripinfo id="Phase7THR_flow.10" depart="63.00" departLane="J2E3_0" departPos="4.10" departSpeed="0.00" departDelay="0.28" arrival="100.00" arrivalLane="E1C1_0" arrivalPos="160.00" arrivalSpeed="11.46" duration="37.00" routeLength="398.04" waitingTime="0.00" waitingCount="0" stopTime="0.00" timeLoss="4.38" rerouteNo="1" devices="tripinfo_Phase7THR_flow.10 routing_Phase7THR_flow.10 emissions_Phase7THR_flow.10 battery_Phase7THR_flow.10" vType="Auto" speedFactor="0.89" vaporized="">
        <emissions CO_abs="1371.184849" CO2_abs="91392.747935" HC_abs="8.379086" PMx_abs="1.536076" NOx_abs="36.839966" fuel_abs="39.285926" electricity_abs="0"/>
    </tripinfo>
    <tripinfo id="Phase7THR_flow.11" depart="69.00" departLane="J2E3_0" departPos="4.10" departSpeed="0.00" departDelay="0.01" arrival="101.00" arrivalLane="E1C1_0" arrivalPos="160.00" arrivalSpeed="15.15" duration="32.00" routeLength="398.04" waitingTime="0.00" waitingCount="0" stopTime="0.00" timeLoss="7.27" rerouteNo="1" devices="tripinfo_Phase7THR_flow.11 routing_Phase7THR_flow.11 emissions_Phase7THR_flow.11 battery_Phase7THR_flow.11" vType="Auto" speedFactor="1.17" vaporized="">
        <emissions CO_abs="1712.160381" CO2_abs="120932.933406" HC_abs="10.634988" PMx_abs="2.212797" NOx_abs="49.567855" fuel_abs="51.983685" electricity_abs="0"/>
    </tripinfo>
    <tripinfo id="Phase3THR_flow.8" depart="71.00" departLane="C1E1_0" departPos="4.10" departSpeed="0.00" departDelay="0.24" arrival="104.00" arrivalLane="E3J2_0" arrivalPos="160.00" arrivalSpeed="13.44" duration="33.00" routeLength="398.04" waitingTime="0.00" waitingCount="0" stopTime="0.00" timeLoss="3.70" rerouteNo="1" devices="tripinfo_Phase3THR_flow.8 routing_Phase3THR_flow.8 emissions_Phase3THR_flow.8 battery_Phase3THR_flow.8" vType="Auto" speedFactor="0.99" vaporized="">
        <emissions CO_abs="1224.445108" CO2_abs="101062.880783" HC_abs="7.920182" PMx_abs="1.595832" NOx_abs="39.630609" fuel_abs="43.442663" electricity_abs="0"/>
    </tripinfo>
    <tripinfo id="Phase7THR_flow.12" depart="76.00" departLane="J2E3_0" departPos="4.10" departSpeed="0.00" departDelay="0.74" arrival="108.00" arrivalLane="E1C1_0" arrivalPos="160.00" arrivalSpeed="14.72" duration="32.00" routeLength="398.04" waitingTime="0.00" waitingCount="0" stopTime="0.00" timeLoss="4.24" rerouteNo="1" devices="tripinfo_Phase7THR_flow.12 routing_Phase7THR_flow.12 emissions_Phase7THR_flow.12 battery_Phase7THR_flow.12" vType="Auto" speedFactor="1.07" vaporized="">
        <emissions CO_abs="1283.913741" CO2_abs="96275.609535" HC_abs="8.070333" PMx_abs="1.626073" NOx_abs="38.365939" fuel_abs="41.384758" electricity_abs="0"/>
    </tripinfo>
    <tripinfo id="Phase3THR_flow.9" depart="80.00" departLane="C1E1_0" departPos="4.10" departSpeed="0.00" departDelay="0.40" arrival="111.00" arrivalLane="E3J2_0" arrivalPos="160.00" arrivalSpeed="14.72" duration="31.00" routeLength="398.04" waitingTime="0.00" waitingCount="0" stopTime="0.00" timeLoss="4.08" rerouteNo="1" devices="tripinfo_Phase3THR_flow.9 routing_Phase3THR_flow.9 emissions_Phase3THR_flow.9 battery_Phase3THR_flow.9" vType="Auto" speedFactor="1.08" vaporized="">
        <emissions CO_abs="1215.854615" CO2_abs="96032.717245" HC_abs="7.697995" PMx_abs="1.600436" NOx_abs="38.044022" fuel_abs="41.280325" electricity_abs="0"/>
    </tripinfo>
    <tripinfo id="Phase4_flow.0" depart="0.00" departLane="J2E3_0" departPos="4.10" departSpeed="0.00" departDelay="0.00" arrival="120.00" arrivalLane="E4C4_0" arrivalPos="160.00" arrivalSpeed="16.29" duration="120.00" routeLength="400.69" waitingTime="85.00" waitingCount="1" stopTime="0.00" timeLoss="94.83" rerouteNo="1" devices="tripinfo_Phase4_flow.0 routing_Phase4_flow.0 emissions_Phase4_flow.0 battery_Phase4_flow.0" vType="Auto" speedFactor="1.20" vaporized="">
        <emissions CO_abs="15227.814370" CO2_abs="358177.243873" HC_abs="77.782005" PMx_abs="8.041531" NOx_abs="157.354262" fuel_abs="153.970788" electricity_abs="0"/>
    </tripinfo>
    <tripinfo id="Phase8_flow.0" depart="5.00" departLane="C1E1_0" departPos="4.10" departSpeed="0.00" departDelay="5.00" arrival="122.00" arrivalLane="E2N1_0" arrivalPos="160.00" arrivalSpeed="12.53" duration="117.00" routeLength="400.69" waitingTime="78.00" waitingCount="1" stopTime="0.00" timeLoss="86.96" rerouteNo="1" devices="tripinfo_Phase8_flow.0 routing_Phase8_flow.0 emissions_Phase8_flow.0 battery_Phase8_flow.0" vType="Auto" speedFactor="0.98" vaporized="">
        <emissions CO_abs="13838.117508" CO2_abs="311020.255763" HC_abs="70.321680" PMx_abs="6.939429" NOx_abs="136.888833" fuel_abs="133.699804" electricity_abs="0"/>
    </tripinfo>
    <tripinfo id="Phase4_flow.1" depart="55.00" departLane="J2E3_0" departPos="4.10" departSpeed="0.00" departDelay="0.46" arrival="122.00" arrivalLane="E4C4_0" arrivalPos="160.00" arrivalSpeed="15.01" duration="67.00" routeLength="400.69" waitingTime="30.00" waitingCount="1" stopTime="0.00" timeLoss="40.18" rerouteNo="1" devices="tripinfo_Phase4_flow.1 routing_Phase4_flow.1 emissions_Phase4_flow.1 battery_Phase4_flow.1" vType="Auto" speedFactor="1.11" vaporized="">
        <emissions CO_abs="6271.869993" CO2_abs="203967.043822" HC_abs="33.317859" PMx_abs="4.196891" NOx_abs="87.040140" fuel_abs="87.678492" electricity_abs="0"/>
    </tripinfo>
    <tripinfo id="Phase1THR_flow.3" depart="40.00" departLane="N1E2_0" departPos="4.10" departSpeed="0.00" departDelay="0.30" arrival="137.00" arrivalLane="E4C4_0" arrivalPos="160.00" arrivalSpeed="13.67" duration="97.00" routeLength="398.04" waitingTime="59.00" waitingCount="1" stopTime="0.00" timeLoss="68.92" rerouteNo="1" devices="tripinfo_Phase1THR_flow.3 routing_Phase1THR_flow.3 emissions_Phase1THR_flow.3 battery_Phase1THR_flow.3" vType="Auto" speedFactor="1.02" vaporized="">
        <emissions CO_abs="10703.842170" CO2_abs="263774.729755" HC_abs="54.957779" PMx_abs="5.812283" NOx_abs="115.561721" fuel_abs="113.389373" electricity_abs="0"/>
    </tripinfo>
    <tripinfo id="Phase1THR_flow.2" depart="27.00" departLane="N1E2_0" departPos="4.10" departSpeed="0.00" departDelay="0.53" arrival="139.00" arrivalLane="E4C4_0" arrivalPos="160.00" arrivalSpeed="12.04" duration="112.00" routeLength="398.04" waitingTime="73.00" waitingCount="1" stopTime="0.00" timeLoss="81.86" rerouteNo="1" devices="tripinfo_Phase1THR_flow.2 routing_Phase1THR_flow.2 emissions_Phase1THR_flow.2 battery_Phase1THR_flow.2" vType="Auto" speedFactor="0.97" vaporized="">
        <emissions CO_abs="13000.412758" CO2_abs="297647.143351" HC_abs="66.192596" PMx_abs="6.600429" NOx_abs="130.732527" fuel_abs="127.950894" electricity_abs="0"/>
    </tripinfo>
    <tripinfo id="Phase5THR_flow.2" depart="28.00" departLane="C4E4_0" departPos="4.10" departSpeed="0.00" departDelay="0.83" arrival="140.00" arrivalLane="E2N1_0" arrivalPos="160.00" arrivalSpeed="11.05" duration="112.00" routeLength="398.04" waitingTime="71.00" waitingCount="1" stopTime="0.00" timeLoss="79.76" rerouteNo="1" devices="tripinfo_Phase5THR_flow.2 routing_Phase5THR_flow.2 emissions_Phase5THR_flow.2 battery_Phase5THR_flow.2" vType="Auto" speedFactor="0.90" vaporized="">
        <emissions CO_abs="12820.484174" CO2_abs="292262.381241" HC_abs="65.234154" PMx_abs="6.433189" NOx_abs="128.168685" fuel_abs="125.636231" electricity_abs="0"/>
    </tripinfo>
    <tripinfo id="Phase5THR_flow.3" depart="41.00" departLane="C4E4_0" departPos="4.10" departSpeed="0.00" departDelay="0.25" arrival="140.00" arrivalLane="E2N1_1" arrivalPos="160.00" arrivalSpeed="10.95" duration="99.00" routeLength="398.04" waitingTime="56.00" waitingCount="1" stopTime="0.00" timeLoss="66.67" rerouteNo="1" devices="tripinfo_Phase5THR_flow.3 routing_Phase5THR_flow.3 emissions_Phase5THR_flow.3 battery_Phase5THR_flow.3" vType="Auto" speedFactor="0.89" vaporized="">
        <emissions CO_abs="10331.058776" CO2_abs="258286.438847" HC_abs="53.091308" PMx_abs="5.474114" NOx_abs="111.906344" fuel_abs="111.030298" electricity_abs="0"/>
    </tripinfo>