<?xml version="1.0" encoding="UTF-8"?>

<!-- generated on 2022-08-20 22:24:22 by Eclipse SUMO GUI Version 1.11.0
<configuration xmlns:xsi="http://www.w3.org/2001/XMLSchema-instance" xsi:noNamespaceSchemaLocation="http://sumo.dlr.de/xsd/sumoConfiguration.xsd">

    <input>
        <net-file value="bus_operation.net.xml"/>
        <route-files value="bus_operation_VC_0.5_flow.rou.xml"/>
        <additional-files value="bus_operation.add.xml"/>
    </input>

    <output>
        <emission-output value="result/bus_operation_emissionInfo.xml"/>
        <battery-output value="result/bus_operation_batteryOut.xml"/>
        <battery-output.precision value="4"/>
        <summary-output value="result/bus_operation_summary.xml"/>
        <tripinfo-output value="result/bus_operation_tripInfo.xml"/>
    </output>

    <time>
        <begin value="0"/>
        <end value="7200"/>
    </time>

    <battery>
        <device.battery.probability value="1"/>
    </battery>

    <traci_server>
        <remote-port value="62534"/>
    </traci_server>

    <random_number>
        <random value="true"/>
        <seed value="8"/>
    </random_number>

</configuration>
-->

<emission-export xmlns:xsi="http://www.w3.org/2001/XMLSchema-instance" xsi:noNamespaceSchemaLocation="http://sumo.dlr.de/xsd/emission_file.xsd">
    <timestep time="0.00">
        <vehicle id="Phase1THR_flow.0" eclass="HBEFA3/PC_G_EU4" CO2="2624.72" CO="164.78" HC="0.81" NOx="1.20" PMx="0.07" fuel="1.13" electricity="0.00" noise="55.94" route="!Phase1THR_flow.0!var#1" type="Auto" waiting="0.00" lane="N1E2_0" pos="4.10" speed="0.00" angle="180.00" x="192.00" y="195.90"/>
        <vehicle id="Phase2_flow.0" eclass="HBEFA3/PC_G_EU4" CO2="2624.72" CO="164.78" HC="0.81" NOx="1.20" PMx="0.07" fuel="1.13" electricity="0.00" noise="55.94" route="!Phase2_flow.0!var#1" type="Auto" waiting="0.00" lane="C4E4_0" pos="4.10" speed="0.00" angle="0.00" x="208.00" y="-195.90"/>
        <vehicle id="Phase3THR_flow.0" eclass="HBEFA3/PC_G_EU4" CO2="2624.72" CO="164.78" HC="0.81" NOx="1.20" PMx="0.07" fuel="1.13" electricity="0.00" noise="55.94" route="!Phase3THR_flow.0!var#1" type="Auto" waiting="0.00" lane="C1E1_0" pos="4.10" speed="0.00" angle="90.00" x="4.10" y="-8.00"/>
        <vehicle id="Phase4_flow.0" eclass="HBEFA3/PC_G_EU4" CO2="2624.72" CO="164.78" HC="0.81" NOx="1.20" PMx="0.07" fuel="1.13" electricity="0.00" noise="55.94" route="!Phase4_flow.0!var#1" type="Auto" waiting="0.00" lane="J2E3_0" pos="4.10" speed="0.00" angle="270.00" x="395.90" y="8.00"/>
    </timestep>
    <timestep time="1.00">
        <vehicle id="Phase1THR_flow.0" eclass="HBEFA3/PC_G_EU4" CO2="4327.39" CO="154.06" HC="0.80" NOx="1.93" PMx="0.10" fuel="1.86" electricity="0.00" noise="69.20" route="!Phase1THR_flow.0!var#1" type="Auto" waiting="0.00" lane="N1E2_0" pos="6.87" speed="2.77" angle="180.00" x="192.00" y="193.13"/>
        <vehicle id="Phase2_flow.0" eclass="HBEFA3/PC_G_EU4" CO2="4327.39" CO="154.06" HC="0.80" NOx="1.93" PMx="0.10" fuel="1.86" electricity="0.00" noise="69.20" route="!Phase2_flow.0!var#1" type="Auto" waiting="0.00" lane="C4E4_0" pos="6.87" speed="2.77" angle="0.00" x="208.00" y="-193.13"/>
        <vehicle id="Phase3THR_flow.0" eclass="HBEFA3/PC_G_EU4" CO2="4327.39" CO="154.06" HC="0.80" NOx="1.93" PMx="0.10" fuel="1.86" electricity="0.00" noise="69.20" route="!Phase3THR_flow.0!var#1" type="Auto" waiting="0.00" lane="C1E1_0" pos="6.87" speed="2.77" angle="90.00" x="6.87" y="-8.00"/>
        <vehicle id="Phase4_flow.0" eclass="HBEFA3/PC_G_EU4" CO2="4327.39" CO="154.06" HC="0.80" NOx="1.93" PMx="0.10" fuel="1.86" electricity="0.00" noise="69.20" route="!Phase4_flow.0!var#1" type="Auto" waiting="0.00" lane="J2E3_0" pos="6.87" speed="2.77" angle="270.00" x="393.13" y="8.00"/>
    </timestep>
    <timestep time="2.00">
        <vehicle id="Phase1Right_flow.0" eclass="HBEFA3/PC_G_EU4" CO2="2624.72" CO="164.78" HC="0.81" NOx="1.20" PMx="0.07" fuel="1.13" electricity="0.00" noise="55.94" route="!Phase1Right_flow.0!var#1" type="Auto" waiting="0.00" lane="N1E2_0" pos="4.10" speed="0.00" angle="180.00" x="192.00" y="195.90"/>
        <vehicle id="Phase1THR_flow.0" eclass="HBEFA3/PC_G_EU4" CO2="4423.84" CO="129.03" HC="0.69" NOx="1.93" PMx="0.09" fuel="1.90" electricity="0.00" noise="65.95" route="!Phase1THR_flow.0!var#1" type="Auto" waiting="0.00" lane="N1E2_0" pos="11.49" speed="4.62" angle="180.00" x="192.00" y="188.51"/>
        <vehicle id="Phase2_flow.0" eclass="HBEFA3/PC_G_EU4" CO2="4423.84" CO="129.03" HC="0.69" NOx="1.93" PMx="0.09" fuel="1.90" electricity="0.00" noise="65.95" route="!Phase2_flow.0!var#1" type="Auto" waiting="0.00" lane="C4E4_0" pos="11.49" speed="4.62" angle="0.00" x="208.00" y="-188.51"/>
        <vehicle id="Phase3Right_flow.0" eclass="HBEFA3/PC_G_EU4" CO2="2624.72" CO="164.78" HC="0.81" NOx="1.20" PMx="0.07" fuel="1.13" electricity="0.00" noise="55.94" route="!Phase3Right_flow.0!var#1" type="Auto" waiting="0.00" lane="C1E1_0" pos="4.10" speed="0.00" angle="90.00" x="4.10" y="-8.00"/>
        <vehicle id="Phase3THR_flow.0" eclass="HBEFA3/PC_G_EU4" CO2="4423.84" CO="129.03" HC="0.69" NOx="1.93" PMx="0.09" fuel="1.90" electricity="0.00" noise="65.95" route="!Phase3THR_flow.0!var#1" type="Auto" waiting="0.00" lane="C1E1_0" pos="11.49" speed="4.62" angle="90.00" x="11.49" y="-8.00"/>
        <vehicle id="Phase4_flow.0" eclass="HBEFA3/PC_G_EU4" CO2="4423.84" CO="129.03" HC="0.69" NOx="1.93" PMx="0.09" fuel="1.90" electricity="0.00" noise="65.95" route="!Phase4_flow.0!var#1" type="Auto" waiting="0.00" lane="J2E3_0" pos="11.49" speed="4.62" angle="270.00" x="388.51" y="8.00"/>
        <vehicle id="Phase5THR_flow.0" eclass="HBEFA3/PC_G_EU4" CO2="2624.72" CO="164.78" HC="0.81" NOx="1.20" PMx="0.07" fuel="1.13" electricity="0.00" noise="55.94" route="!Phase5THR_flow.0!var#1" type="Auto" waiting="0.00" lane="C4E4_0" pos="4.10" speed="0.00" angle="0.00" x="208.00" y="-195.90"/>
        <vehicle id="Phase7THR_flow.0" eclass="HBEFA3/PC_G_EU4" CO2="2624.72" CO="164.78" HC="0.81" NOx="1.20" PMx="0.07" fuel="1.13" electricity="0.00" noise="55.94" route="!Phase7THR_flow.0!var#1" type="Auto" waiting="0.00" lane="J2E3_0" pos="4.10" speed="0.00" angle="270.00" x="395.90" y="8.00"/>
    </timestep>
    <timestep time="3.00">
        <vehicle id="Phase1Right_flow.0" eclass="HBEFA3/PC_G_EU4" CO2="2630.93" CO="155.70" HC="0.77" NOx="1.19" PMx="0.06" fuel="1.13" electricity="0.00" noise="58.46" route="!Phase1Right_flow.0!var#1" type="Auto" waiting="0.00" lane="N1E2_0" pos="4.63" speed="0.53" angle="180.00" x="192.00" y="195.37"/>
        <vehicle id="Phase1THR_flow.0" eclass="HBEFA3/PC_G_EU4" CO2="6559.82" CO="141.95" HC="0.80" NOx="2.87" PMx="0.14" fuel="2.82" electricity="0.00" noise="69.53" route="!Phase1THR_flow.0!var#1" type="Auto" waiting="0.00" lane="N1E2_0" pos="18.54" speed="7.05" angle="180.00" x="192.00" y="181.46"/>
        <vehicle id="Phase2_flow.0" eclass="HBEFA3/PC_G_EU4" CO2="6559.82" CO="141.95" HC="0.80" NOx="2.87" PMx="0.14" fuel="2.82" electricity="0.00" noise="69.53" route="!Phase2_flow.0!var#1" type="Auto" waiting="0.00" lane="C4E4_0" pos="18.54" speed="7.05" angle="0.00" x="208.00" y="-181.46"/>
        <vehicle id="Phase3Right_flow.0" eclass="HBEFA3/PC_G_EU4" CO2="2630.93" CO="155.70" HC="0.77" NOx="1.19" PMx="0.06" fuel="1.13" electricity="0.00" noise="58.46" route="!Phase3Right_flow.0!var#1" type="Auto" waiting="0.00" lane="C1E1_0" pos="4.63" speed="0.53" angle="90.00" x="4.63" y="-8.00"/>
        <vehicle id="Phase3THR_flow.0" eclass="HBEFA3/PC_G_EU4" CO2="6559.82" CO="141.95" HC="0.80" NOx="2.87" PMx="0.14" fuel="2.82" electricity="0.00" noise="69.53" route="!Phase3THR_flow.0!var#1" type="Auto" waiting="0.00" lane="C1E1_0" pos="18.54" speed="7.05" angle="90.00" x="18.54" y="-8.00"/>
        <vehicle id="Phase4_flow.0" eclass="HBEFA3/PC_G_EU4" CO2="6559.82" CO="141.95" HC="0.80" NOx="2.87" PMx="0.14" fuel="2.82" electricity="0.00" noise="69.53" route="!Phase4_flow.0!var#1" type="Auto" waiting="0.00" lane="J2E3_0" pos="18.54" speed="7.05" angle="270.00" x="381.46" y="8.00"/>
        <vehicle id="Phase5THR_flow.0" eclass="HBEFA3/PC_G_EU4" CO2="2630.93" CO="155.70" HC="0.77" NOx="1.19" PMx="0.06" fuel="1.13" electricity="0.00" noise="58.46" route="!Phase5THR_flow.0!var#1" type="Auto" waiting="0.00" lane="C4E4_0" pos="4.63" speed="0.53" angle="0.00" x="208.00" y="-195.37"/>
        <vehicle id="Phase7THR_flow.0" eclass="HBEFA3/PC_G_EU4" CO2="2630.93" CO="155.70" HC="0.77" NOx="1.19" PMx="0.06" fuel="1.13" electricity="0.00" noise="58.46" route="!Phase7THR_flow.0!var#1" type="Auto" waiting="0.00" lane="J2E3_0" pos="4.63" speed="0.53" angle="270.00" x="395.37" y="8.00"/>
    </timestep>
    <timestep time="4.00">
        <vehicle id="Phase1Right_flow.0" eclass="HBEFA3/PC_G_EU4" CO2="4171.39" CO="148.14" HC="0.77" NOx="1.85" PMx="0.09" fuel="1.79" electricity="0.00" noise="67.74" route="!Phase1Right_flow.0!var#1" type="Auto" waiting="0.00" lane="N1E2_0" pos="7.58" speed="2.95" angle="180.00" x="192.00" y="192.42"/>
        <vehicle id="Phase1THR_flow.0" eclass="HBEFA3/PC_G_EU4" CO2="8263.78" CO="150.37" HC="0.88" NOx="3.61" PMx="0.17" fuel="3.55" electricity="0.00" noise="70.90" route="!Phase1THR_flow.0!var#1" type="Auto" waiting="0.00" lane="N1E2_0" pos="28.07" speed="9.53" angle="180.00" x="192.00" y="171.93"/>
        <vehicle id="Phase2_flow.0" eclass="HBEFA3/PC_G_EU4" CO2="8263.78" CO="150.37" HC="0.88" NOx="3.61" PMx="0.17" fuel="3.55" electricity="0.00" noise="70.90" route="!Phase2_flow.0!var#1" type="Auto" waiting="0.00" lane="C4E4_1" pos="28.07" speed="9.53" angle="0.00" x="204.80" y="-171.93"/>
        <vehicle id="Phase3Right_flow.0" eclass="HBEFA3/PC_G_EU4" CO2="4171.39" CO="148.14" HC="0.77" NOx="1.85" PMx="0.09" fuel="1.79" electricity="0.00" noise="67.74" route="!Phase3Right_flow.0!var#1" type="Auto" waiting="0.00" lane="C1E1_0" pos="7.58" speed="2.95" angle="90.00" x="7.58" y="-8.00"/>
        <vehicle id="Phase3THR_flow.0" eclass="HBEFA3/PC_G_EU4" CO2="8263.78" CO="150.37" HC="0.88" NOx="3.61" PMx="0.17" fuel="3.55" electricity="0.00" noise="70.90" route="!Phase3THR_flow.0!var#1" type="Auto" waiting="0.00" lane="C1E1_0" pos="28.07" speed="9.53" angle="90.00" x="28.07" y="-8.00"/>
        <vehicle id="Phase4_flow.0" eclass="HBEFA3/PC_G_EU4" CO2="8263.78" CO="150.37" HC="0.88" NOx="3.61" PMx="0.17" fuel="3.55" electricity="0.00" noise="70.90" route="!Phase4_flow.0!var#1" type="Auto" waiting="0.00" lane="J2E3_1" pos="28.07" speed="9.53" angle="270.00" x="371.93" y="4.80"/>
        <vehicle id="Phase5THR_flow.0" eclass="HBEFA3/PC_G_EU4" CO2="4171.39" CO="148.14" HC="0.77" NOx="1.85" PMx="0.09" fuel="1.79" electricity="0.00" noise="67.74" route="!Phase5THR_flow.0!var#1" type="Auto" waiting="0.00" lane="C4E4_0" pos="7.58" speed="2.95" angle="0.00" x="208.00" y="-192.42"/>
        <vehicle id="Phase7THR_flow.0" eclass="HBEFA3/PC_G_EU4" CO2="4171.39" CO="148.14" HC="0.77" NOx="1.85" PMx="0.09" fuel="1.79" electricity="0.00" noise="67.74" route="!Phase7THR_flow.0!var#1" type="Auto" waiting="0.00" lane="J2E3_0" pos="7.58" speed="2.95" angle="270.00" x="392.42" y="8.00"/>
    </timestep>
    <timestep time="5.00">
        <vehicle id="Phase1Right_flow.0" eclass="HBEFA3/PC_G_EU4" CO2="4004.16" CO="122.24" HC="0.65" NOx="1.73" PMx="0.08" fuel="1.72" electricity="0.00" noise="64.55" route="!Phase1Right_flow.0!var#1" type="Auto" waiting="0.00" lane="N1E2_0" pos="12.07" speed="4.49" angle="180.00" x="192.00" y="187.93"/>
        <vehicle id="Phase1THR_flow.0" eclass="HBEFA3/PC_G_EU4" CO2="11522.34" CO="192.98" HC="1.16" NOx="5.07" PMx="0.25" fuel="4.95" electricity="0.00" noise="73.93" route="!Phase1THR_flow.0!var#1" type="Auto" waiting="0.00" lane="N1E2_0" pos="40.48" speed="12.41" angle="180.00" x="192.00" y="159.52"/>
        <vehicle id="Phase2_flow.0" eclass="HBEFA3/PC_G_EU4" CO2="10182.25" CO="167.92" HC="1.01" NOx="4.45" PMx="0.22" fuel="4.38" electricity="0.00" noise="72.35" route="!Phase2_flow.0!var#1" type="Auto" waiting="0.00" lane="C4E4_1" pos="40.14" speed="12.07" angle="0.00" x="204.80" y="-159.86"/>
        <vehicle id="Phase3Right_flow.0" eclass="HBEFA3/PC_G_EU4" CO2="4004.16" CO="122.24" HC="0.65" NOx="1.73" PMx="0.08" fuel="1.72" electricity="0.00" noise="64.55" route="!Phase3Right_flow.0!var#1" type="Auto" waiting="0.00" lane="C1E1_0" pos="12.07" speed="4.49" angle="90.00" x="12.07" y="-8.00"/>
        <vehicle id="Phase3THR_flow.0" eclass="HBEFA3/PC_G_EU4" CO2="10267.14" CO="169.50" HC="1.02" NOx="4.49" PMx="0.22" fuel="4.41" electricity="0.00" noise="72.45" route="!Phase3THR_flow.0!var#1" type="Auto" waiting="0.00" lane="C1E1_0" pos="40.16" speed="12.09" angle="90.00" x="40.16" y="-8.00"/>
        <vehicle id="Phase4_flow.0" eclass="HBEFA3/PC_G_EU4" CO2="11103.14" CO="185.12" HC="1.11" NOx="4.88" PMx="0.24" fuel="4.77" electricity="0.00" noise="73.44" route="!Phase4_flow.0!var#1" type="Auto" waiting="0.00" lane="J2E3_1" pos="40.38" speed="12.30" angle="270.00" x="359.62" y="4.80"/>
        <vehicle id="Phase5Right_flow.0" eclass="HBEFA3/PC_G_EU4" CO2="2624.72" CO="164.78" HC="0.81" NOx="1.20" PMx="0.07" fuel="1.13" electricity="0.00" noise="55.94" route="!Phase5Right_flow.0!var#1" type="Auto" waiting="0.00" lane="C4E4_0" pos="4.10" speed="0.00" angle="0.00" x="208.00" y="-195.90"/>
        <vehicle id="Phase5THR_flow.0" eclass="HBEFA3/PC_G_EU4" CO2="6500.84" CO="155.81" HC="0.86" NOx="2.88" PMx="0.14" fuel="2.79" electricity="0.00" noise="70.93" route="!Phase5THR_flow.0!var#1" type="Auto" waiting="0.00" lane="C4E4_0" pos="13.40" speed="5.82" angle="0.00" x="208.00" y="-186.60"/>
        <vehicle id="Phase6_flow.0" eclass="HBEFA3/PC_G_EU4" CO2="2624.72" CO="164.78" HC="0.81" NOx="1.20" PMx="0.07" fuel="1.13" electricity="0.00" noise="55.94" route="!Phase6_flow.0!var#1" type="Auto" waiting="0.00" lane="N1E2_0" pos="4.10" speed="0.00" angle="180.00" x="192.00" y="195.90"/>
        <vehicle id="Phase7Right_flow.0" eclass="HBEFA3/PC_G_EU4" CO2="2624.72" CO="164.78" HC="0.81" NOx="1.20" PMx="0.07" fuel="1.13" electricity="0.00" noise="55.94" route="!Phase7Right_flow.0!var#1" type="Auto" waiting="0.00" lane="J2E3_0" pos="4.10" speed="0.00" angle="270.00" x="395.90" y="8.00"/>
        <vehicle id="Phase7THR_flow.0" eclass="HBEFA3/PC_G_EU4" CO2="6500.84" CO="155.81" HC="0.86" NOx="2.88" PMx="0.14" fuel="2.79" electricity="0.00" noise="70.93" route="!Phase7THR_flow.0!var#1" type="Auto" waiting="0.00" lane="J2E3_0" pos="13.40" speed="5.82" angle="270.00" x="386.60" y="8.00"/>
        <vehicle id="Phase8_flow.0" eclass="HBEFA3/PC_G_EU4" CO2="2624.72" CO="164.78" HC="0.81" NOx="1.20" PMx="0.07" fuel="1.13" electricity="0.00" noise="55.94" route="!Phase8_flow.0!var#1" type="Auto" waiting="0.00" lane="C1E1_0" pos="4.10" speed="0.00" angle="90.00" x="4.10" y="-8.00"/>
    </timestep>
    <timestep time="6.00">
        <vehicle id="Phase1Right_flow.0" eclass="HBEFA3/PC_G_EU4" CO2="6225.21" CO="137.90" HC="0.78" NOx="2.72" PMx="0.13" fuel="2.68" electricity="0.00" noise="68.96" route="!Phase1Right_flow.0!var#1" type="Auto" waiting="0.00" lane="N1E2_0" pos="18.88" speed="6.81" angle="180.00" x="192.00" y="181.12"/>
        <vehicle id="Phase1THR_flow.0" eclass="HBEFA3/PC_G_EU4" CO2="4176.47" CO="37.74" HC="0.27" NOx="1.59" PMx="0.06" fuel="1.80" electricity="0.00" noise="65.47" route="!Phase1THR_flow.0!var#1" type="Auto" waiting="0.00" lane="N1E2_0" pos="53.45" speed="12.97" angle="180.00" x="192.00" y="146.55"/>
        <vehicle id="Phase2_flow.0" eclass="HBEFA3/PC_G_EU4" CO2="0.00" CO="0.00" HC="0.00" NOx="0.00" PMx="0.00" fuel="0.00" electricity="0.00" noise="60.55" route="!Phase2_flow.0!var#1" type="Auto" waiting="0.00" lane="C4E4_1" pos="51.29" speed="11.15" angle="0.00" x="204.80" y="-148.71"/>
        <vehicle id="Phase3Right_flow.0" eclass="HBEFA3/PC_G_EU4" CO2="6225.21" CO="137.90" HC="0.78" NOx="2.72" PMx="0.13" fuel="2.68" electricity="0.00" noise="68.96" route="!Phase3Right_flow.0!var#1" type="Auto" waiting="0.00" lane="C1E1_0" pos="18.88" speed="6.81" angle="90.00" x="18.88" y="-8.00"/>
        <vehicle id="Phase3THR_flow.0" eclass="HBEFA3/PC_G_EU4" CO2="0.00" CO="0.00" HC="0.00" NOx="0.00" PMx="0.00" fuel="0.00" electricity="0.00" noise="62.45" route="!Phase3THR_flow.0!var#1" type="Auto" waiting="0.00" lane="C1E1_0" pos="51.99" speed="11.83" angle="90.00" x="51.99" y="-8.00"/>
        <vehicle id="Phase4_flow.0" eclass="HBEFA3/PC_G_EU4" CO2="4392.11" CO="42.44" HC="0.30" NOx="1.70" PMx="0.07" fuel="1.89" electricity="0.00" noise="65.65" route="!Phase4_flow.0!var#1" type="Auto" waiting="0.00" lane="J2E3_1" pos="53.31" speed="12.93" angle="270.00" x="346.69" y="4.80"/>
        <vehicle id="Phase5Right_flow.0" eclass="HBEFA3/PC_G_EU4" CO2="4003.23" CO="151.27" HC="0.78" NOx="1.79" PMx="0.09" fuel="1.72" electricity="0.00" noise="68.00" route="!Phase5Right_flow.0!var#1" type="Auto" waiting="0.00" lane="C4E4_0" pos="6.62" speed="2.52" angle="0.00" x="208.00" y="-193.38"/>
        <vehicle id="Phase5THR_flow.0" eclass="HBEFA3/PC_G_EU4" CO2="5053.92" CO="107.27" HC="0.61" NOx="2.15" PMx="0.10" fuel="2.17" electricity="0.00" noise="65.91" route="!Phase5THR_flow.0!var#1" type="Auto" waiting="0.00" lane="C4E4_0" pos="20.76" speed="7.37" angle="0.00" x="208.00" y="-179.24"/>
        <vehicle id="Phase6_flow.0" eclass="HBEFA3/PC_G_EU4" CO2="2998.36" CO="147.79" HC="0.74" NOx="1.34" PMx="0.07" fuel="1.29" electricity="0.00" noise="62.85" route="!Phase6_flow.0!var#1" type="Auto" waiting="0.00" lane="N1E2_0" pos="5.55" speed="1.45" angle="180.00" x="192.00" y="194.45"/>
        <vehicle id="Phase7Right_flow.0" eclass="HBEFA3/PC_G_EU4" CO2="4003.23" CO="151.27" HC="0.78" NOx="1.79" PMx="0.09" fuel="1.72" electricity="0.00" noise="68.00" route="!Phase7Right_flow.0!var#1" type="Auto" waiting="0.00" lane="J2E3_0" pos="6.62" speed="2.52" angle="270.00" x="393.38" y="8.00"/>
        <vehicle id="Phase7THR_flow.0" eclass="HBEFA3/PC_G_EU4" CO2="5053.92" CO="107.27" HC="0.61" NOx="2.15" PMx="0.10" fuel="2.17" electricity="0.00" noise="65.91" route="!Phase7THR_flow.0!var#1" type="Auto" waiting="0.00" lane="J2E3_0" pos="20.76" speed="7.37" angle="270.00" x="379.24" y="8.00"/>
        <vehicle id="Phase8_flow.0" eclass="HBEFA3/PC_G_EU4" CO2="2998.36" CO="147.79" HC="0.74" NOx="1.34" PMx="0.07" fuel="1.29" electricity="0.00" noise="62.85" route="!Phase8_flow.0!var#1" type="Auto" waiting="0.00" lane="C1E1_0" pos="5.55" speed="1.45" angle="90.00" x="5.55" y="-8.00"/>
    </timestep>
    <timestep time="7.00">
        <vehicle id="Phase1Right_flow.0" eclass="HBEFA3/PC_G_EU4" CO2="5588.28" CO="106.72" HC="0.62" NOx="2.38" PMx="0.11" fuel="2.40" electricity="0.00" noise="66.66" route="!Phase1Right_flow.0!var#1" type="Auto" waiting="0.00" lane="N1E2_0" pos="27.28" speed="8.41" angle="180.00" x="192.00" y="172.72"/>
        <vehicle id="Phase1THR_flow.0" eclass="HBEFA3/PC_G_EU4" CO2="0.00" CO="0.00" HC="0.00" NOx="0.00" PMx="0.00" fuel="0.00" electricity="0.00" noise="61.04" route="!Phase1THR_flow.0!var#1" type="Auto" waiting="0.00" lane="N1E2_0" pos="65.37" speed="11.92" angle="180.00" x="192.00" y="134.63"/>
        <vehicle id="Phase2_flow.0" eclass="HBEFA3/PC_G_EU4" CO2="3940.48" CO="42.07" HC="0.28" NOx="1.51" PMx="0.06" fuel="1.69" electricity="0.00" noise="64.71" route="!Phase2_flow.0!var#1" type="Auto" waiting="0.00" lane="C4E4_1" pos="63.01" speed="11.72" angle="0.00" x="204.80" y="-136.99"/>
        <vehicle id="Phase3Right_flow.0" eclass="HBEFA3/PC_G_EU4" CO2="5588.28" CO="106.72" HC="0.62" NOx="2.38" PMx="0.11" fuel="2.40" electricity="0.00" noise="66.66" route="!Phase3Right_flow.0!var#1" type="Auto" waiting="0.00" lane="C1E1_0" pos="27.28" speed="8.41" angle="90.00" x="27.28" y="-8.00"/>
        <vehicle id="Phase3THR_flow.0" eclass="HBEFA3/PC_G_EU4" CO2="0.00" CO="0.00" HC="0.00" NOx="0.00" PMx="0.00" fuel="0.00" electricity="0.00" noise="59.99" route="!Phase3THR_flow.0!var#1" type="Auto" waiting="0.00" lane="C1E1_0" pos="62.76" speed="10.77" angle="90.00" x="62.76" y="-8.00"/>
        <vehicle id="Phase4_flow.0" eclass="HBEFA3/PC_G_EU4" CO2="4330.46" CO="37.36" HC="0.27" NOx="1.65" PMx="0.06" fuel="1.86" electricity="0.00" noise="65.84" route="!Phase4_flow.0!var#1" type="Auto" waiting="0.00" lane="J2E3_1" pos="66.82" speed="13.51" angle="270.00" x="333.18" y="4.80"/>
        <vehicle id="Phase5Right_flow.0" eclass="HBEFA3/PC_G_EU4" CO2="6171.56" CO="154.75" HC="0.85" NOx="2.73" PMx="0.13" fuel="2.65" electricity="0.00" noise="70.69" route="!Phase5Right_flow.0!var#1" type="Auto" waiting="0.00" lane="C4E4_0" pos="12.00" speed="5.38" angle="0.00" x="208.00" y="-188.00"/>
        <vehicle id="Phase5THR_flow.0" eclass="HBEFA3/PC_G_EU4" CO2="7964.08" CO="142.70" HC="0.84" NOx="3.46" PMx="0.17" fuel="3.42" electricity="0.00" noise="70.30" route="!Phase5THR_flow.0!var#1" type="Auto" waiting="0.00" lane="C4E4_0" pos="30.45" speed="9.69" angle="0.00" x="208.00" y="-169.55"/>
        <vehicle id="Phase6_flow.0" eclass="HBEFA3/PC_G_EU4" CO2="4654.30" CO="144.71" HC="0.77" NOx="2.06" PMx="0.10" fuel="2.00" electricity="0.00" noise="68.03" route="!Phase6_flow.0!var#1" type="Auto" waiting="0.00" lane="N1E2_0" pos="9.40" speed="3.85" angle="180.00" x="192.00" y="190.60"/>
        <vehicle id="Phase7Right_flow.0" eclass="HBEFA3/PC_G_EU4" CO2="6171.56" CO="154.75" HC="0.85" NOx="2.73" PMx="0.13" fuel="2.65" electricity="0.00" noise="70.69" route="!Phase7Right_flow.0!var#1" type="Auto" waiting="0.00" lane="J2E3_0" pos="12.00" speed="5.38" angle="270.00" x="388.00" y="8.00"/>
        <vehicle id="Phase7THR_flow.0" eclass="HBEFA3/PC_G_EU4" CO2="7964.08" CO="142.70" HC="0.84" NOx="3.46" PMx="0.17" fuel="3.42" electricity="0.00" noise="70.30" route="!Phase7THR_flow.0!var#1" type="Auto" waiting="0.00" lane="J2E3_0" pos="30.45" speed="9.69" angle="270.00" x="369.55" y="8.00"/>
        <vehicle id="Phase8_flow.0" eclass="HBEFA3/PC_G_EU4" CO2="4654.30" CO="144.71" HC="0.77" NOx="2.06" PMx="0.10" fuel="2.00" electricity="0.00" noise="68.03" route="!Phase8_flow.0!var#1" type="Auto" waiting="0.00" lane="C1E1_0" pos="9.40" speed="3.85" angle="90.00" x="9.40" y="-8.00"/>
    </timestep>
    <timestep time="8.00">
        <vehicle id="Bus_West.0" eclass="Energy/default" CO2="0.00" CO="0.00" HC="0.00" NOx="0.00" PMx="0.00" fuel="0.00" electricity="0.06" noise="55.94" route="!Bus_West" type="ElectricBus" waiting="0.00" lane="J2E3_0" pos="12.10" speed="0.00" angle="270.00" x="387.90" y="8.00"/>
        <vehicle id="Phase1Right_flow.0" eclass="HBEFA3/PC_G_EU4" CO2="10376.05" CO="178.66" HC="1.06" NOx="4.56" PMx="0.23" fuel="4.46" electricity="0.00" noise="73.10" route="!Phase1Right_flow.0!var#1" type="Auto" waiting="0.00" lane="N1E2_0" pos="38.50" speed="11.22" angle="180.00" x="192.00" y="161.50"/>
        <vehicle id="Phase1THR_flow.0" eclass="HBEFA3/PC_G_EU4" CO2="4032.99" CO="38.28" HC="0.27" NOx="1.54" PMx="0.06" fuel="1.73" electricity="0.00" noise="65.12" route="!Phase1THR_flow.0!var#1" type="Auto" waiting="0.00" lane="N1E2_0" pos="77.85" speed="12.48" angle="180.00" x="192.00" y="122.15"/>
        <vehicle id="Phase2_flow.0" eclass="HBEFA3/PC_G_EU4" CO2="0.00" CO="0.00" HC="0.00" NOx="0.00" PMx="0.00" fuel="0.00" electricity="0.00" noise="60.81" route="!Phase2_flow.0!var#1" type="Auto" waiting="0.00" lane="C4E4_1" pos="74.02" speed="11.01" angle="0.00" x="204.80" y="-125.98"/>
        <vehicle id="Phase3Right_flow.0" eclass="HBEFA3/PC_G_EU4" CO2="10376.05" CO="178.66" HC="1.06" NOx="4.56" PMx="0.23" fuel="4.46" electricity="0.00" noise="73.10" route="!Phase3Right_flow.0!var#1" type="Auto" waiting="0.00" lane="C1E1_0" pos="38.50" speed="11.22" angle="90.00" x="38.50" y="-8.00"/>
        <vehicle id="Phase3THR_flow.0" eclass="HBEFA3/PC_G_EU4" CO2="3801.55" CO="42.38" HC="0.28" NOx="1.46" PMx="0.05" fuel="1.63" electricity="0.00" noise="64.40" route="!Phase3THR_flow.0!var#1" type="Auto" waiting="0.00" lane="C1E1_0" pos="74.09" speed="11.33" angle="90.00" x="74.09" y="-8.00"/>
        <vehicle id="Phase4_flow.0" eclass="HBEFA3/PC_G_EU4" CO2="0.00" CO="0.00" HC="0.00" NOx="0.00" PMx="0.00" fuel="0.00" electricity="0.00" noise="62.31" route="!Phase4_flow.0!var#1" type="Auto" waiting="0.00" lane="J2E3_1" pos="79.61" speed="12.79" angle="270.00" x="320.39" y="4.80"/>
        <vehicle id="Phase5Right_flow.0" eclass="HBEFA3/PC_G_EU4" CO2="5007.04" CO="110.80" HC="0.62" NOx="2.14" PMx="0.10" fuel="2.15" electricity="0.00" noise="65.95" route="!Phase5Right_flow.0!var#1" type="Auto" waiting="0.00" lane="C4E4_0" pos="18.98" speed="6.98" angle="0.00" x="208.00" y="-181.02"/>
        <vehicle id="Phase5THR_flow.0" eclass="HBEFA3/PC_G_EU4" CO2="6732.10" CO="103.40" HC="0.63" NOx="2.84" PMx="0.13" fuel="2.89" electricity="0.00" noise="67.97" route="!Phase5THR_flow.0!var#1" type="Auto" waiting="0.00" lane="C4E4_0" pos="41.70" speed="11.25" angle="0.00" x="208.00" y="-158.30"/>
        <vehicle id="Phase6_flow.0" eclass="HBEFA3/PC_G_EU4" CO2="4388.45" CO="117.43" HC="0.64" NOx="1.89" PMx="0.09" fuel="1.89" electricity="0.00" noise="65.15" route="!Phase6_flow.0!var#1" type="Auto" waiting="0.00" lane="N1E2_0" pos="14.83" speed="5.43" angle="180.00" x="192.00" y="185.17"/>
        <vehicle id="Phase7Right_flow.0" eclass="HBEFA3/PC_G_EU4" CO2="5007.04" CO="110.80" HC="0.62" NOx="2.14" PMx="0.10" fuel="2.15" electricity="0.00" noise="65.95" route="!Phase7Right_flow.0!var#1" type="Auto" waiting="0.00" lane="J2E3_0" pos="18.98" speed="6.98" angle="270.00" x="381.02" y="8.00"/>
        <vehicle id="Phase7THR_flow.0" eclass="HBEFA3/PC_G_EU4" CO2="6732.10" CO="103.40" HC="0.63" NOx="2.84" PMx="0.13" fuel="2.89" electricity="0.00" noise="67.97" route="!Phase7THR_flow.0!var#1" type="Auto" waiting="0.00" lane="J2E3_0" pos="41.70" speed="11.25" angle="270.00" x="358.30" y="8.00"/>
        <vehicle id="Phase8_flow.0" eclass="HBEFA3/PC_G_EU4" CO2="4388.45" CO="117.43" HC="0.64" NOx="1.89" PMx="0.09" fuel="1.89" electricity="0.00" noise="65.15" route="!Phase8_flow.0!var#1" type="Auto" waiting="0.00" lane="C1E1_0" pos="14.83" speed="5.43" angle="90.00" x="14.83" y="-8.00"/>
    </timestep>
    <timestep time="9.00">
        <vehicle id="Bus_East.0" eclass="Energy/default" CO2="0.00" CO="0.00" HC="0.00" NOx="0.00" PMx="0.00" fuel="0.00" electricity="0.06" noise="55.94" route="!Bus_East" type="ElectricBus" waiting="0.00" lane="C1E1_0" pos="12.10" speed="0.00" angle="90.00" x="12.10" y="-8.00"/>
        <vehicle id="Bus_West.0" eclass="Energy/default" CO2="0.00" CO="0.00" HC="0.00" NOx="0.00" PMx="0.00" fuel="0.00" electricity="0.68" noise="57.77" route="!Bus_West" type="ElectricBus" waiting="0.00" lane="J2E3_0" pos="12.48" speed="0.38" angle="270.00" x="387.52" y="8.00"/>
        <vehicle id="Phase1Right_flow.0" eclass="HBEFA3/PC_G_EU4" CO2="8061.69" CO="117.96" HC="0.73" NOx="3.43" PMx="0.16" fuel="3.47" electricity="0.00" noise="69.48" route="!Phase1Right_flow.0!var#1" type="Auto" waiting="0.00" lane="N1E2_0" pos="51.44" speed="12.94" angle="180.00" x="192.00" y="148.56"/>
        <vehicle id="Phase1THR_flow.0" eclass="HBEFA3/PC_G_EU4" CO2="0.00" CO="0.00" HC="0.00" NOx="0.00" PMx="0.00" fuel="0.00" electricity="0.00" noise="62.73" route="!Phase1THR_flow.0!var#1" type="Auto" waiting="0.00" lane="N1E2_0" pos="90.06" speed="12.21" angle="180.00" x="192.00" y="109.94"/>
        <vehicle id="Phase2_flow.0" eclass="HBEFA3/PC_G_EU4" CO2="4546.83" CO="54.14" HC="0.35" NOx="1.80" PMx="0.07" fuel="1.95" electricity="0.00" noise="65.38" route="!Phase2_flow.0!var#1" type="Auto" waiting="0.00" lane="C4E4_1" pos="85.80" speed="11.78" angle="0.00" x="204.80" y="-114.20"/>
        <vehicle id="Phase3Right_flow.0" eclass="HBEFA3/PC_G_EU4" CO2="12117.55" CO="195.17" HC="1.18" NOx="5.32" PMx="0.27" fuel="5.21" electricity="0.00" noise="73.90" route="!Phase3Right_flow.0!var#1" type="Auto" waiting="0.00" lane="C1E1_0" pos="52.42" speed="13.91" angle="90.00" x="52.42" y="-8.00"/>
        <vehicle id="Phase3THR_flow.0" eclass="HBEFA3/PC_G_EU4" CO2="0.00" CO="0.00" HC="0.00" NOx="0.00" PMx="0.00" fuel="0.00" electricity="0.00" noise="61.84" route="!Phase3THR_flow.0!var#1" type="Auto" waiting="0.00" lane="C1E1_0" pos="85.15" speed="11.06" angle="90.00" x="85.15" y="-8.00"/>
        <vehicle id="Phase4_flow.0" eclass="HBEFA3/PC_G_EU4" CO2="5028.64" CO="51.39" HC="0.35" NOx="1.98" PMx="0.08" fuel="2.16" electricity="0.00" noise="66.47" route="!Phase4_flow.0!var#1" type="Auto" waiting="0.00" lane="J2E3_1" pos="93.18" speed="13.56" angle="270.00" x="306.82" y="4.80"/>
        <vehicle id="Phase5Right_flow.0" eclass="HBEFA3/PC_G_EU4" CO2="7109.13" CO="130.90" HC="0.77" NOx="3.08" PMx="0.15" fuel="3.06" electricity="0.00" noise="69.15" route="!Phase5Right_flow.0!var#1" type="Auto" waiting="0.00" lane="C4E4_0" pos="28.08" speed="9.10" angle="0.00" x="208.00" y="-171.92"/>
        <vehicle id="Phase5THR_flow.0" eclass="HBEFA3/PC_G_EU4" CO2="10871.10" CO="171.13" HC="1.04" NOx="4.74" PMx="0.23" fuel="4.67" electricity="0.00" noise="72.57" route="!Phase5THR_flow.0!var#1" type="Auto" waiting="0.00" lane="C4E4_0" pos="55.35" speed="13.65" angle="0.00" x="208.00" y="-144.65"/>
        <vehicle id="Phase6_flow.0" eclass="HBEFA3/PC_G_EU4" CO2="6160.60" CO="128.41" HC="0.73" NOx="2.67" PMx="0.13" fuel="2.65" electricity="0.00" noise="68.24" route="!Phase6_flow.0!var#1" type="Auto" waiting="0.00" lane="N1E2_0" pos="22.33" speed="7.51" angle="180.00" x="192.00" y="177.67"/>
        <vehicle id="Phase7Right_flow.0" eclass="HBEFA3/PC_G_EU4" CO2="7109.13" CO="130.90" HC="0.77" NOx="3.08" PMx="0.15" fuel="3.06" electricity="0.00" noise="69.15" route="!Phase7Right_flow.0!var#1" type="Auto" waiting="0.00" lane="J2E3_0" pos="28.08" speed="9.10" angle="270.00" x="371.92" y="8.00"/>
        <vehicle id="Phase7THR_flow.0" eclass="HBEFA3/PC_G_EU4" CO2="10871.10" CO="171.13" HC="1.04" NOx="4.74" PMx="0.23" fuel="4.67" electricity="0.00" noise="72.57" route="!Phase7THR_flow.0!var#1" type="Auto" waiting="0.00" lane="J2E3_0" pos="55.35" speed="13.65" angle="270.00" x="344.65" y="8.00"/>